Boundary condition: Head_3
VARIABLES="X","Y","Z","Head","Flux (nodal)"
ZONE  T="Head_3" , SOLUTIONTIME= 0.77760E+07, I=        10    , DATAPACKING=BLOCK, DT=(DOUBLE DOUBLE)
# X
   8.00000000000000     
   8.00000000000000     
   8.00000000000000     
   8.00000000000000     
   8.00000000000000     
   8.00000000000000     
   8.00000000000000     
   8.00000000000000     
   8.00000000000000     
   8.00000000000000     
# Y
  0.000000000000000E+000
  0.250000000000000     
  0.000000000000000E+000
  0.250000000000000     
  0.000000000000000E+000
  0.250000000000000     
  0.000000000000000E+000
  0.250000000000000     
  0.000000000000000E+000
  0.250000000000000     
# Z
 -7.400000000000001E-002
 -7.400000000000001E-002
 -2.400000000000000E-002
 -2.400000000000000E-002
 -1.400000000000000E-002
 -1.400000000000000E-002
 -4.000000000000000E-003
 -4.000000000000000E-003
  6.000000000000002E-003
  6.000000000000002E-003
# Head
  8.000000000000007E-003
  8.000000000000007E-003
  8.000000000000000E-003
  8.000000000000000E-003
  7.999999999999998E-003
  7.999999999999998E-003
  8.000000000000000E-003
  8.000000000000000E-003
  8.000000000000000E-003
  8.000000000000000E-003
# Flux
  2.890801545189781E-009
  2.890704280111844E-009
  3.469350342384311E-009
  3.469195747514420E-009
  5.782375520395750E-010
  5.782085983614319E-010
  3.888383118079544E-014
  3.888188536082714E-014
  1.760273412142325E-013
  1.760193262973180E-013
ZONE  T="Head_3"  , SOLUTIONTIME= 0.77912E+07, I=        10 , DATAPACKING=BLOCK, DT=(DOUBLE DOUBLE), VARSHARELIST=([1,2,3])
# Head
  8.000000000000007E-003
  8.000000000000007E-003
  8.000000000000000E-003
  8.000000000000000E-003
  7.999999999999998E-003
  7.999999999999998E-003
  8.000000000000000E-003
  8.000000000000000E-003
  8.000000000000000E-003
  8.000000000000000E-003
# Flux
 -4.686302066408618E-006
 -4.686301275760689E-006
 -5.623599643911955E-006
 -5.623598481133748E-006
 -9.372996720163179E-007
 -9.372994678386859E-007
 -6.697125137795532E-011
 -6.697391630937438E-011
 -3.640070824253267E-010
 -3.640610316453151E-010
