Boundary condition: Helev_3
VARIABLES="X","Y","Z","Head","Flux (nodal)"
ZONE  T="Helev_3" , SOLUTIONTIME= 0.60533E+02, I=       322    , DATAPACKING=BLOCK, DT=(DOUBLE DOUBLE)
# X
  0.000000000000000E+000
  5.000000000000000E-002
  0.100000000000000     
  0.150000000000000     
  0.200000000000000     
  0.250000000000000     
  0.300000000000000     
  0.350000000000000     
  0.400000000000000     
  0.450000000000000     
  0.500000000000000     
  0.550000000000000     
  0.600000000000000     
  0.650000000000000     
  0.700000000000000     
  0.750000000000000     
  0.800000000000000     
  0.850000000000000     
  0.900000000000000     
  0.950000000000000     
   1.00000000000000     
   1.05000000000000     
   1.10000000000000     
   1.15000000000000     
   1.20000000000000     
   1.25000000000000     
   1.30000000000000     
   1.35000000000000     
   1.40000000000000     
   1.45000000000000     
   1.50000000000000     
   1.55000000000000     
   1.60000000000000     
   1.65000000000000     
   1.70000000000000     
   1.75000000000000     
   1.80000000000000     
   1.85000000000000     
   1.90000000000000     
   1.95000000000000     
   2.00000000000000     
   2.05000000000000     
   2.10000000000000     
   2.15000000000000     
   2.20000000000000     
   2.25000000000000     
   2.30000000000000     
   2.35000000000000     
   2.40000000000000     
   2.45000000000000     
   2.50000000000000     
   2.55000000000000     
   2.60000000000000     
   2.65000000000000     
   2.70000000000000     
   2.75000000000000     
   2.80000000000000     
   2.85000000000000     
   2.90000000000000     
   2.95000000000000     
   3.00000000000000     
   3.05000000000000     
   3.10000000000000     
   3.15000000000000     
   3.20000000000000     
   3.25000000000000     
   3.30000000000000     
   3.35000000000000     
   3.40000000000000     
   3.45000000000000     
   3.50000000000000     
   3.55000000000000     
   3.60000000000000     
   3.65000000000000     
   3.70000000000000     
   3.75000000000000     
   3.80000000000000     
   3.85000000000000     
   3.90000000000000     
   3.95000000000000     
   4.00000000000000     
   4.05000000000000     
   4.10000000000000     
   4.15000000000000     
   4.20000000000000     
   4.25000000000000     
   4.30000000000000     
   4.35000000000000     
   4.40000000000000     
   4.45000000000000     
   4.50000000000000     
   4.55000000000000     
   4.60000000000000     
   4.65000000000000     
   4.70000000000000     
   4.75000000000000     
   4.80000000000000     
   4.85000000000000     
   4.90000000000000     
   4.95000000000000     
   5.00000000000000     
   5.05000000000000     
   5.10000000000000     
   5.15000000000000     
   5.20000000000000     
   5.25000000000000     
   5.30000000000000     
   5.35000000000000     
   5.40000000000000     
   5.45000000000000     
   5.50000000000000     
   5.55000000000000     
   5.60000000000000     
   5.65000000000000     
   5.70000000000000     
   5.75000000000000     
   5.80000000000000     
   5.85000000000000     
   5.90000000000000     
   5.95000000000000     
   6.00000000000000     
   6.05000000000000     
   6.10000000000000     
   6.15000000000000     
   6.20000000000000     
   6.25000000000000     
   6.30000000000000     
   6.35000000000000     
   6.40000000000000     
   6.45000000000000     
   6.50000000000000     
   6.55000000000000     
   6.60000000000000     
   6.65000000000000     
   6.70000000000000     
   6.75000000000000     
   6.80000000000000     
   6.85000000000000     
   6.90000000000000     
   6.95000000000000     
   7.00000000000000     
   7.05000000000000     
   7.10000000000000     
   7.15000000000000     
   7.20000000000000     
   7.25000000000000     
   7.30000000000000     
   7.35000000000000     
   7.40000000000000     
   7.45000000000000     
   7.50000000000000     
   7.55000000000000     
   7.60000000000000     
   7.65000000000000     
   7.70000000000000     
   7.75000000000000     
   7.80000000000000     
   7.85000000000000     
   7.90000000000000     
   7.95000000000000     
   8.00000000000000     
  0.000000000000000E+000
  5.000000000000000E-002
  0.100000000000000     
  0.150000000000000     
  0.200000000000000     
  0.250000000000000     
  0.300000000000000     
  0.350000000000000     
  0.400000000000000     
  0.450000000000000     
  0.500000000000000     
  0.550000000000000     
  0.600000000000000     
  0.650000000000000     
  0.700000000000000     
  0.750000000000000     
  0.800000000000000     
  0.850000000000000     
  0.900000000000000     
  0.950000000000000     
   1.00000000000000     
   1.05000000000000     
   1.10000000000000     
   1.15000000000000     
   1.20000000000000     
   1.25000000000000     
   1.30000000000000     
   1.35000000000000     
   1.40000000000000     
   1.45000000000000     
   1.50000000000000     
   1.55000000000000     
   1.60000000000000     
   1.65000000000000     
   1.70000000000000     
   1.75000000000000     
   1.80000000000000     
   1.85000000000000     
   1.90000000000000     
   1.95000000000000     
   2.00000000000000     
   2.05000000000000     
   2.10000000000000     
   2.15000000000000     
   2.20000000000000     
   2.25000000000000     
   2.30000000000000     
   2.35000000000000     
   2.40000000000000     
   2.45000000000000     
   2.50000000000000     
   2.55000000000000     
   2.60000000000000     
   2.65000000000000     
   2.70000000000000     
   2.75000000000000     
   2.80000000000000     
   2.85000000000000     
   2.90000000000000     
   2.95000000000000     
   3.00000000000000     
   3.05000000000000     
   3.10000000000000     
   3.15000000000000     
   3.20000000000000     
   3.25000000000000     
   3.30000000000000     
   3.35000000000000     
   3.40000000000000     
   3.45000000000000     
   3.50000000000000     
   3.55000000000000     
   3.60000000000000     
   3.65000000000000     
   3.70000000000000     
   3.75000000000000     
   3.80000000000000     
   3.85000000000000     
   3.90000000000000     
   3.95000000000000     
   4.00000000000000     
   4.05000000000000     
   4.10000000000000     
   4.15000000000000     
   4.20000000000000     
   4.25000000000000     
   4.30000000000000     
   4.35000000000000     
   4.40000000000000     
   4.45000000000000     
   4.50000000000000     
   4.55000000000000     
   4.60000000000000     
   4.65000000000000     
   4.70000000000000     
   4.75000000000000     
   4.80000000000000     
   4.85000000000000     
   4.90000000000000     
   4.95000000000000     
   5.00000000000000     
   5.05000000000000     
   5.10000000000000     
   5.15000000000000     
   5.20000000000000     
   5.25000000000000     
   5.30000000000000     
   5.35000000000000     
   5.40000000000000     
   5.45000000000000     
   5.50000000000000     
   5.55000000000000     
   5.60000000000000     
   5.65000000000000     
   5.70000000000000     
   5.75000000000000     
   5.80000000000000     
   5.85000000000000     
   5.90000000000000     
   5.95000000000000     
   6.00000000000000     
   6.05000000000000     
   6.10000000000000     
   6.15000000000000     
   6.20000000000000     
   6.25000000000000     
   6.30000000000000     
   6.35000000000000     
   6.40000000000000     
   6.45000000000000     
   6.50000000000000     
   6.55000000000000     
   6.60000000000000     
   6.65000000000000     
   6.70000000000000     
   6.75000000000000     
   6.80000000000000     
   6.85000000000000     
   6.90000000000000     
   6.95000000000000     
   7.00000000000000     
   7.05000000000000     
   7.10000000000000     
   7.15000000000000     
   7.20000000000000     
   7.25000000000000     
   7.30000000000000     
   7.35000000000000     
   7.40000000000000     
   7.45000000000000     
   7.50000000000000     
   7.55000000000000     
   7.60000000000000     
   7.65000000000000     
   7.70000000000000     
   7.75000000000000     
   7.80000000000000     
   7.85000000000000     
   7.90000000000000     
   7.95000000000000     
   8.00000000000000     
# Y
  0.000000000000000E+000
  0.000000000000000E+000
  0.000000000000000E+000
  0.000000000000000E+000
  0.000000000000000E+000
  0.000000000000000E+000
  0.000000000000000E+000
  0.000000000000000E+000
  0.000000000000000E+000
  0.000000000000000E+000
  0.000000000000000E+000
  0.000000000000000E+000
  0.000000000000000E+000
  0.000000000000000E+000
  0.000000000000000E+000
  0.000000000000000E+000
  0.000000000000000E+000
  0.000000000000000E+000
  0.000000000000000E+000
  0.000000000000000E+000
  0.000000000000000E+000
  0.000000000000000E+000
  0.000000000000000E+000
  0.000000000000000E+000
  0.000000000000000E+000
  0.000000000000000E+000
  0.000000000000000E+000
  0.000000000000000E+000
  0.000000000000000E+000
  0.000000000000000E+000
  0.000000000000000E+000
  0.000000000000000E+000
  0.000000000000000E+000
  0.000000000000000E+000
  0.000000000000000E+000
  0.000000000000000E+000
  0.000000000000000E+000
  0.000000000000000E+000
  0.000000000000000E+000
  0.000000000000000E+000
  0.000000000000000E+000
  0.000000000000000E+000
  0.000000000000000E+000
  0.000000000000000E+000
  0.000000000000000E+000
  0.000000000000000E+000
  0.000000000000000E+000
  0.000000000000000E+000
  0.000000000000000E+000
  0.000000000000000E+000
  0.000000000000000E+000
  0.000000000000000E+000
  0.000000000000000E+000
  0.000000000000000E+000
  0.000000000000000E+000
  0.000000000000000E+000
  0.000000000000000E+000
  0.000000000000000E+000
  0.000000000000000E+000
  0.000000000000000E+000
  0.000000000000000E+000
  0.000000000000000E+000
  0.000000000000000E+000
  0.000000000000000E+000
  0.000000000000000E+000
  0.000000000000000E+000
  0.000000000000000E+000
  0.000000000000000E+000
  0.000000000000000E+000
  0.000000000000000E+000
  0.000000000000000E+000
  0.000000000000000E+000
  0.000000000000000E+000
  0.000000000000000E+000
  0.000000000000000E+000
  0.000000000000000E+000
  0.000000000000000E+000
  0.000000000000000E+000
  0.000000000000000E+000
  0.000000000000000E+000
  0.000000000000000E+000
  0.000000000000000E+000
  0.000000000000000E+000
  0.000000000000000E+000
  0.000000000000000E+000
  0.000000000000000E+000
  0.000000000000000E+000
  0.000000000000000E+000
  0.000000000000000E+000
  0.000000000000000E+000
  0.000000000000000E+000
  0.000000000000000E+000
  0.000000000000000E+000
  0.000000000000000E+000
  0.000000000000000E+000
  0.000000000000000E+000
  0.000000000000000E+000
  0.000000000000000E+000
  0.000000000000000E+000
  0.000000000000000E+000
  0.000000000000000E+000
  0.000000000000000E+000
  0.000000000000000E+000
  0.000000000000000E+000
  0.000000000000000E+000
  0.000000000000000E+000
  0.000000000000000E+000
  0.000000000000000E+000
  0.000000000000000E+000
  0.000000000000000E+000
  0.000000000000000E+000
  0.000000000000000E+000
  0.000000000000000E+000
  0.000000000000000E+000
  0.000000000000000E+000
  0.000000000000000E+000
  0.000000000000000E+000
  0.000000000000000E+000
  0.000000000000000E+000
  0.000000000000000E+000
  0.000000000000000E+000
  0.000000000000000E+000
  0.000000000000000E+000
  0.000000000000000E+000
  0.000000000000000E+000
  0.000000000000000E+000
  0.000000000000000E+000
  0.000000000000000E+000
  0.000000000000000E+000
  0.000000000000000E+000
  0.000000000000000E+000
  0.000000000000000E+000
  0.000000000000000E+000
  0.000000000000000E+000
  0.000000000000000E+000
  0.000000000000000E+000
  0.000000000000000E+000
  0.000000000000000E+000
  0.000000000000000E+000
  0.000000000000000E+000
  0.000000000000000E+000
  0.000000000000000E+000
  0.000000000000000E+000
  0.000000000000000E+000
  0.000000000000000E+000
  0.000000000000000E+000
  0.000000000000000E+000
  0.000000000000000E+000
  0.000000000000000E+000
  0.000000000000000E+000
  0.000000000000000E+000
  0.000000000000000E+000
  0.000000000000000E+000
  0.000000000000000E+000
  0.000000000000000E+000
  0.000000000000000E+000
  0.000000000000000E+000
  0.000000000000000E+000
  0.000000000000000E+000
  0.000000000000000E+000
  0.000000000000000E+000
  0.250000000000000     
  0.250000000000000     
  0.250000000000000     
  0.250000000000000     
  0.250000000000000     
  0.250000000000000     
  0.250000000000000     
  0.250000000000000     
  0.250000000000000     
  0.250000000000000     
  0.250000000000000     
  0.250000000000000     
  0.250000000000000     
  0.250000000000000     
  0.250000000000000     
  0.250000000000000     
  0.250000000000000     
  0.250000000000000     
  0.250000000000000     
  0.250000000000000     
  0.250000000000000     
  0.250000000000000     
  0.250000000000000     
  0.250000000000000     
  0.250000000000000     
  0.250000000000000     
  0.250000000000000     
  0.250000000000000     
  0.250000000000000     
  0.250000000000000     
  0.250000000000000     
  0.250000000000000     
  0.250000000000000     
  0.250000000000000     
  0.250000000000000     
  0.250000000000000     
  0.250000000000000     
  0.250000000000000     
  0.250000000000000     
  0.250000000000000     
  0.250000000000000     
  0.250000000000000     
  0.250000000000000     
  0.250000000000000     
  0.250000000000000     
  0.250000000000000     
  0.250000000000000     
  0.250000000000000     
  0.250000000000000     
  0.250000000000000     
  0.250000000000000     
  0.250000000000000     
  0.250000000000000     
  0.250000000000000     
  0.250000000000000     
  0.250000000000000     
  0.250000000000000     
  0.250000000000000     
  0.250000000000000     
  0.250000000000000     
  0.250000000000000     
  0.250000000000000     
  0.250000000000000     
  0.250000000000000     
  0.250000000000000     
  0.250000000000000     
  0.250000000000000     
  0.250000000000000     
  0.250000000000000     
  0.250000000000000     
  0.250000000000000     
  0.250000000000000     
  0.250000000000000     
  0.250000000000000     
  0.250000000000000     
  0.250000000000000     
  0.250000000000000     
  0.250000000000000     
  0.250000000000000     
  0.250000000000000     
  0.250000000000000     
  0.250000000000000     
  0.250000000000000     
  0.250000000000000     
  0.250000000000000     
  0.250000000000000     
  0.250000000000000     
  0.250000000000000     
  0.250000000000000     
  0.250000000000000     
  0.250000000000000     
  0.250000000000000     
  0.250000000000000     
  0.250000000000000     
  0.250000000000000     
  0.250000000000000     
  0.250000000000000     
  0.250000000000000     
  0.250000000000000     
  0.250000000000000     
  0.250000000000000     
  0.250000000000000     
  0.250000000000000     
  0.250000000000000     
  0.250000000000000     
  0.250000000000000     
  0.250000000000000     
  0.250000000000000     
  0.250000000000000     
  0.250000000000000     
  0.250000000000000     
  0.250000000000000     
  0.250000000000000     
  0.250000000000000     
  0.250000000000000     
  0.250000000000000     
  0.250000000000000     
  0.250000000000000     
  0.250000000000000     
  0.250000000000000     
  0.250000000000000     
  0.250000000000000     
  0.250000000000000     
  0.250000000000000     
  0.250000000000000     
  0.250000000000000     
  0.250000000000000     
  0.250000000000000     
  0.250000000000000     
  0.250000000000000     
  0.250000000000000     
  0.250000000000000     
  0.250000000000000     
  0.250000000000000     
  0.250000000000000     
  0.250000000000000     
  0.250000000000000     
  0.250000000000000     
  0.250000000000000     
  0.250000000000000     
  0.250000000000000     
  0.250000000000000     
  0.250000000000000     
  0.250000000000000     
  0.250000000000000     
  0.250000000000000     
  0.250000000000000     
  0.250000000000000     
  0.250000000000000     
  0.250000000000000     
  0.250000000000000     
  0.250000000000000     
  0.250000000000000     
  0.250000000000000     
  0.250000000000000     
  0.250000000000000     
  0.250000000000000     
  0.250000000000000     
  0.250000000000000     
  0.250000000000000     
  0.250000000000000     
# Z
 -5.000000000000000E-002
 -5.015000000000000E-002
 -5.030000000000000E-002
 -5.045000000000000E-002
 -5.060000000000001E-002
 -5.075000000000000E-002
 -5.090000000000000E-002
 -5.105000000000001E-002
 -5.120000000000000E-002
 -5.135000000000000E-002
 -5.150000000000000E-002
 -5.165000000000000E-002
 -5.180000000000001E-002
 -5.195000000000000E-002
 -5.210000000000000E-002
 -5.225000000000000E-002
 -5.240000000000000E-002
 -5.255000000000000E-002
 -5.270000000000000E-002
 -5.285000000000000E-002
 -5.300000000000001E-002
 -5.315000000000000E-002
 -5.330000000000000E-002
 -5.345000000000000E-002
 -5.360000000000000E-002
 -5.375000000000001E-002
 -5.390000000000000E-002
 -5.405000000000000E-002
 -5.420000000000001E-002
 -5.435000000000000E-002
 -5.450000000000001E-002
 -5.465000000000000E-002
 -5.480000000000000E-002
 -5.495000000000001E-002
 -5.510000000000000E-002
 -5.525000000000000E-002
 -5.540000000000000E-002
 -5.555000000000000E-002
 -5.570000000000000E-002
 -5.585000000000000E-002
 -5.600000000000000E-002
 -5.615000000000001E-002
 -5.630000000000000E-002
 -5.645000000000000E-002
 -5.660000000000000E-002
 -5.675000000000000E-002
 -5.690000000000001E-002
 -5.705000000000000E-002
 -5.720000000000000E-002
 -5.735000000000001E-002
 -5.750000000000000E-002
 -5.765000000000001E-002
 -5.780000000000000E-002
 -5.795000000000000E-002
 -5.810000000000001E-002
 -5.825000000000000E-002
 -5.840000000000001E-002
 -5.855000000000000E-002
 -5.870000000000000E-002
 -5.885000000000000E-002
 -5.900000000000000E-002
 -5.915000000000000E-002
 -5.930000000000001E-002
 -5.945000000000000E-002
 -5.960000000000000E-002
 -5.975000000000000E-002
 -5.990000000000000E-002
 -6.005000000000001E-002
 -6.020000000000000E-002
 -6.035000000000000E-002
 -6.050000000000001E-002
 -6.065000000000000E-002
 -6.080000000000001E-002
 -6.095000000000000E-002
 -6.110000000000000E-002
 -6.125000000000000E-002
 -6.140000000000000E-002
 -6.155000000000001E-002
 -6.170000000000000E-002
 -6.185000000000000E-002
 -6.200000000000000E-002
 -6.215000000000000E-002
 -6.230000000000001E-002
 -6.245000000000001E-002
 -6.260000000000000E-002
 -6.275000000000000E-002
 -6.290000000000000E-002
 -6.305000000000001E-002
 -6.320000000000001E-002
 -6.335000000000000E-002
 -6.350000000000000E-002
 -6.365000000000000E-002
 -6.380000000000001E-002
 -6.395000000000001E-002
 -6.410000000000000E-002
 -6.425000000000000E-002
 -6.440000000000001E-002
 -6.455000000000001E-002
 -6.470000000000001E-002
 -6.485000000000000E-002
 -6.500000000000000E-002
 -6.515000000000000E-002
 -6.530000000000000E-002
 -6.545000000000001E-002
 -6.560000000000001E-002
 -6.575000000000000E-002
 -6.590000000000000E-002
 -6.605000000000000E-002
 -6.620000000000001E-002
 -6.635000000000001E-002
 -6.650000000000000E-002
 -6.665000000000000E-002
 -6.680000000000000E-002
 -6.695000000000001E-002
 -6.710000000000001E-002
 -6.725000000000000E-002
 -6.740000000000000E-002
 -6.755000000000000E-002
 -6.770000000000001E-002
 -6.785000000000001E-002
 -6.800000000000000E-002
 -6.815000000000000E-002
 -6.830000000000000E-002
 -6.845000000000001E-002
 -6.860000000000001E-002
 -6.875000000000001E-002
 -6.890000000000000E-002
 -6.905000000000000E-002
 -6.920000000000001E-002
 -6.935000000000001E-002
 -6.950000000000001E-002
 -6.965000000000000E-002
 -6.980000000000000E-002
 -6.995000000000001E-002
 -7.010000000000000E-002
 -7.025000000000001E-002
 -7.040000000000000E-002
 -7.055000000000000E-002
 -7.070000000000001E-002
 -7.085000000000000E-002
 -7.100000000000001E-002
 -7.115000000000000E-002
 -7.130000000000000E-002
 -7.145000000000000E-002
 -7.160000000000000E-002
 -7.175000000000001E-002
 -7.190000000000001E-002
 -7.205000000000000E-002
 -7.220000000000000E-002
 -7.235000000000000E-002
 -7.250000000000001E-002
 -7.265000000000001E-002
 -7.280000000000000E-002
 -7.295000000000000E-002
 -7.310000000000000E-002
 -7.325000000000001E-002
 -7.340000000000001E-002
 -7.355000000000000E-002
 -7.370000000000000E-002
 -7.385000000000000E-002
 -7.400000000000001E-002
 -5.000000000000000E-002
 -5.015000000000000E-002
 -5.030000000000000E-002
 -5.045000000000000E-002
 -5.060000000000001E-002
 -5.075000000000000E-002
 -5.090000000000000E-002
 -5.105000000000001E-002
 -5.120000000000000E-002
 -5.135000000000000E-002
 -5.150000000000000E-002
 -5.165000000000000E-002
 -5.180000000000001E-002
 -5.195000000000000E-002
 -5.210000000000000E-002
 -5.225000000000000E-002
 -5.240000000000000E-002
 -5.255000000000000E-002
 -5.270000000000000E-002
 -5.285000000000000E-002
 -5.300000000000001E-002
 -5.315000000000000E-002
 -5.330000000000000E-002
 -5.345000000000000E-002
 -5.360000000000000E-002
 -5.375000000000001E-002
 -5.390000000000000E-002
 -5.405000000000000E-002
 -5.420000000000001E-002
 -5.435000000000000E-002
 -5.450000000000001E-002
 -5.465000000000000E-002
 -5.480000000000000E-002
 -5.495000000000001E-002
 -5.510000000000000E-002
 -5.525000000000000E-002
 -5.540000000000000E-002
 -5.555000000000000E-002
 -5.570000000000000E-002
 -5.585000000000000E-002
 -5.600000000000000E-002
 -5.615000000000001E-002
 -5.630000000000000E-002
 -5.645000000000000E-002
 -5.660000000000000E-002
 -5.675000000000000E-002
 -5.690000000000001E-002
 -5.705000000000000E-002
 -5.720000000000000E-002
 -5.735000000000001E-002
 -5.750000000000000E-002
 -5.765000000000001E-002
 -5.780000000000000E-002
 -5.795000000000000E-002
 -5.810000000000001E-002
 -5.825000000000000E-002
 -5.840000000000001E-002
 -5.855000000000000E-002
 -5.870000000000000E-002
 -5.885000000000000E-002
 -5.900000000000000E-002
 -5.915000000000000E-002
 -5.930000000000001E-002
 -5.945000000000000E-002
 -5.960000000000000E-002
 -5.975000000000000E-002
 -5.990000000000000E-002
 -6.005000000000001E-002
 -6.020000000000000E-002
 -6.035000000000000E-002
 -6.050000000000001E-002
 -6.065000000000000E-002
 -6.080000000000001E-002
 -6.095000000000000E-002
 -6.110000000000000E-002
 -6.125000000000000E-002
 -6.140000000000000E-002
 -6.155000000000001E-002
 -6.170000000000000E-002
 -6.185000000000000E-002
 -6.200000000000000E-002
 -6.215000000000000E-002
 -6.230000000000001E-002
 -6.245000000000001E-002
 -6.260000000000000E-002
 -6.275000000000000E-002
 -6.290000000000000E-002
 -6.305000000000001E-002
 -6.320000000000001E-002
 -6.335000000000000E-002
 -6.350000000000000E-002
 -6.365000000000000E-002
 -6.380000000000001E-002
 -6.395000000000001E-002
 -6.410000000000000E-002
 -6.425000000000000E-002
 -6.440000000000001E-002
 -6.455000000000001E-002
 -6.470000000000001E-002
 -6.485000000000000E-002
 -6.500000000000000E-002
 -6.515000000000000E-002
 -6.530000000000000E-002
 -6.545000000000001E-002
 -6.560000000000001E-002
 -6.575000000000000E-002
 -6.590000000000000E-002
 -6.605000000000000E-002
 -6.620000000000001E-002
 -6.635000000000001E-002
 -6.650000000000000E-002
 -6.665000000000000E-002
 -6.680000000000000E-002
 -6.695000000000001E-002
 -6.710000000000001E-002
 -6.725000000000000E-002
 -6.740000000000000E-002
 -6.755000000000000E-002
 -6.770000000000001E-002
 -6.785000000000001E-002
 -6.800000000000000E-002
 -6.815000000000000E-002
 -6.830000000000000E-002
 -6.845000000000001E-002
 -6.860000000000001E-002
 -6.875000000000001E-002
 -6.890000000000000E-002
 -6.905000000000000E-002
 -6.920000000000001E-002
 -6.935000000000001E-002
 -6.950000000000001E-002
 -6.965000000000000E-002
 -6.980000000000000E-002
 -6.995000000000001E-002
 -7.010000000000000E-002
 -7.025000000000001E-002
 -7.040000000000000E-002
 -7.055000000000000E-002
 -7.070000000000001E-002
 -7.085000000000000E-002
 -7.100000000000001E-002
 -7.115000000000000E-002
 -7.130000000000000E-002
 -7.145000000000000E-002
 -7.160000000000000E-002
 -7.175000000000001E-002
 -7.190000000000001E-002
 -7.205000000000000E-002
 -7.220000000000000E-002
 -7.235000000000000E-002
 -7.250000000000001E-002
 -7.265000000000001E-002
 -7.280000000000000E-002
 -7.295000000000000E-002
 -7.310000000000000E-002
 -7.325000000000001E-002
 -7.340000000000001E-002
 -7.355000000000000E-002
 -7.370000000000000E-002
 -7.385000000000000E-002
 -7.400000000000001E-002
# Head
 -5.000000000000000E-002
 -5.015000000000000E-002
 -5.030000000000000E-002
 -5.045000000000000E-002
 -5.060000000000001E-002
 -5.075000000000000E-002
 -5.090000000000000E-002
 -5.105000000000001E-002
 -5.120000000000000E-002
 -5.135000000000000E-002
 -5.150000000000000E-002
 -5.165000000000000E-002
 -5.180000000000001E-002
 -5.195000000000000E-002
 -5.210000000000000E-002
 -5.225000000000000E-002
 -5.240000000000000E-002
 -5.255000000000000E-002
 -5.270000000000000E-002
 -5.285000000000000E-002
 -5.300000000000001E-002
 -5.315000000000000E-002
 -5.330000000000000E-002
 -5.345000000000000E-002
 -5.360000000000000E-002
 -5.375000000000001E-002
 -5.390000000000000E-002
 -5.405000000000000E-002
 -5.420000000000001E-002
 -5.435000000000000E-002
 -5.450000000000001E-002
 -5.465000000000000E-002
 -5.480000000000000E-002
 -5.495000000000001E-002
 -5.510000000000000E-002
 -5.525000000000000E-002
 -5.540000000000000E-002
 -5.555000000000000E-002
 -5.570000000000000E-002
 -5.585000000000000E-002
 -5.600000000000000E-002
 -5.615000000000001E-002
 -5.630000000000000E-002
 -5.645000000000000E-002
 -5.660000000000000E-002
 -5.675000000000000E-002
 -5.690000000000001E-002
 -5.705000000000000E-002
 -5.720000000000000E-002
 -5.735000000000001E-002
 -5.750000000000000E-002
 -5.765000000000001E-002
 -5.780000000000000E-002
 -5.795000000000000E-002
 -5.810000000000001E-002
 -5.825000000000000E-002
 -5.840000000000001E-002
 -5.855000000000000E-002
 -5.870000000000000E-002
 -5.885000000000000E-002
 -5.900000000000000E-002
 -5.915000000000000E-002
 -5.930000000000001E-002
 -5.945000000000000E-002
 -5.960000000000000E-002
 -5.975000000000000E-002
 -5.990000000000000E-002
 -6.005000000000001E-002
 -6.020000000000000E-002
 -6.035000000000000E-002
 -6.050000000000001E-002
 -6.065000000000000E-002
 -6.080000000000001E-002
 -6.095000000000000E-002
 -6.110000000000000E-002
 -6.125000000000000E-002
 -6.140000000000000E-002
 -6.155000000000001E-002
 -6.170000000000000E-002
 -6.185000000000000E-002
 -6.200000000000000E-002
 -6.215000000000000E-002
 -6.230000000000001E-002
 -6.245000000000001E-002
 -6.260000000000000E-002
 -6.275000000000000E-002
 -6.290000000000000E-002
 -6.305000000000001E-002
 -6.320000000000001E-002
 -6.335000000000000E-002
 -6.350000000000000E-002
 -6.365000000000000E-002
 -6.380000000000001E-002
 -6.395000000000001E-002
 -6.410000000000000E-002
 -6.425000000000000E-002
 -6.440000000000001E-002
 -6.455000000000001E-002
 -6.470000000000001E-002
 -6.485000000000000E-002
 -6.500000000000000E-002
 -6.515000000000000E-002
 -6.530000000000000E-002
 -6.545000000000001E-002
 -6.560000000000001E-002
 -6.575000000000000E-002
 -6.590000000000000E-002
 -6.605000000000000E-002
 -6.620000000000001E-002
 -6.635000000000001E-002
 -6.650000000000000E-002
 -6.665000000000000E-002
 -6.680000000000000E-002
 -6.695000000000001E-002
 -6.710000000000001E-002
 -6.725000000000000E-002
 -6.740000000000000E-002
 -6.755000000000000E-002
 -6.770000000000001E-002
 -6.785000000000001E-002
 -6.800000000000000E-002
 -6.815000000000000E-002
 -6.830000000000000E-002
 -6.845000000000001E-002
 -6.860000000000001E-002
 -6.875000000000001E-002
 -6.890000000000000E-002
 -6.905000000000000E-002
 -6.920000000000001E-002
 -6.935000000000001E-002
 -6.950000000000001E-002
 -6.965000000000000E-002
 -6.980000000000000E-002
 -6.995000000000001E-002
 -7.010000000000000E-002
 -7.025000000000001E-002
 -7.040000000000000E-002
 -7.055000000000000E-002
 -7.070000000000001E-002
 -7.085000000000000E-002
 -7.100000000000001E-002
 -7.115000000000000E-002
 -7.130000000000000E-002
 -7.145000000000000E-002
 -7.160000000000000E-002
 -7.175000000000001E-002
 -7.190000000000001E-002
 -7.205000000000000E-002
 -7.220000000000000E-002
 -7.235000000000000E-002
 -7.250000000000001E-002
 -7.265000000000001E-002
 -7.280000000000000E-002
 -7.295000000000000E-002
 -7.310000000000000E-002
 -7.325000000000001E-002
 -7.340000000000001E-002
 -7.355000000000000E-002
 -7.370000000000000E-002
 -7.385000000000000E-002
 -7.400000000000001E-002
 -5.000000000000000E-002
 -5.015000000000000E-002
 -5.030000000000000E-002
 -5.045000000000000E-002
 -5.060000000000001E-002
 -5.075000000000000E-002
 -5.090000000000000E-002
 -5.105000000000001E-002
 -5.120000000000000E-002
 -5.135000000000000E-002
 -5.150000000000000E-002
 -5.165000000000000E-002
 -5.180000000000001E-002
 -5.195000000000000E-002
 -5.210000000000000E-002
 -5.225000000000000E-002
 -5.240000000000000E-002
 -5.255000000000000E-002
 -5.270000000000000E-002