Title =  "./properties/material_sand.mprops/sand"
 # Van Genuchten function parameters:
# Residual water saturation                                  5.000000E-02
# Alpha (power index)                                         12.0500    
# Beta (power index)                                          5.67000    
# Gamma (computed)                                           0.823633    
# Pore connectivity                                          0.500000    
# Minimum relative permeability                              1.000000E-03
#  Table minimum pressure                                    -1000.00    
#  Table maximum s-k slope                                    100.000    
#  Table smoothness factor                                   1.000000E-07
variables="Pressure","Saturation"
zone t="Pressure - Saturation"
# unsaturated tables
# pressure-saturation
  -1000.00000000000       5.000000000000000E-002
  -500.000000000000       5.000000000000000E-002
  -250.000000000000       5.000000000000006E-002
  -125.000000000000       5.000000000000138E-002
  -62.5000000000000       5.000000000003490E-002
  -31.2500000000000       5.000000000088831E-002
  -15.6250000000000       5.000000002261386E-002
  -7.81250000000000       5.000000057568466E-002
  -3.90625000000000       5.000001465530071E-002
  -2.92968750000000       5.000005616407797E-002
  -1.95312500000000       5.000037308243963E-002
  -1.70898437500000       5.000069602877370E-002
  -1.46484375000000       5.000142977824081E-002
  -1.22070312500000       5.000335000185272E-002
  -1.09863281250000       5.000547939309434E-002
 -0.976562500000000       5.000949761563423E-002
 -0.854492187500000       5.001771889514661E-002
 -0.793457031250000       5.002504602277269E-002
 -0.732421875000000       5.003639797654961E-002
 -0.671386718750000       5.005464479861984E-002
 -0.640869140625000       5.006790439360091E-002
 -0.610351562500000       5.008528071773107E-002
 -0.579833984375000       5.010836277956204E-002
 -0.549316406250000       5.013948732929058E-002
 -0.518798828125000       5.018216203026993E-002
 -0.488281250000000       5.024177394742343E-002
 -0.473022460937500       5.028041273815172E-002
 -0.457763671875000       5.032681110404771E-002
 -0.442504882812500       5.038286854299794E-002
 -0.427246093750000       5.045103929302946E-002
 -0.411987304687500       5.053452257457969E-002
 -0.396728515625000       5.063752852645239E-002
 -0.381469726562500       5.076565445160027E-002
 -0.366210937500000       5.092642404966403E-002
 -0.350952148437500       5.113007106012887E-002
 -0.343322753906250       5.125218655181923E-002
 -0.335693359375000       5.139069530737496E-002
 -0.328063964843750       5.154824711582426E-002
 -0.320434570312500       5.172799601212968E-002
 -0.312805175781250       5.193371133855441E-002
 -0.305175781250000       5.216991673932761E-002
 -0.297546386718750       5.244206502261536E-002
 -0.289916992187500       5.275675934440420E-002
 -0.282287597656250       5.312203457737460E-002
 -0.274658203125000       5.354771736798243E-002
 -0.267028808593750       5.404588974558061E-002
 -0.259399414062500       5.463148992820096E-002
 -0.255584716796875       5.496271282789891E-002
 -0.251770019531250       5.532309617884516E-002
 -0.247955322265625       5.571569969862968E-002
 -0.244140625000000       5.614395666597702E-002
 -0.240325927734375       5.661172598596265E-002
 -0.236511230468750       5.712335240518503E-002
 -0.232696533203125       5.768373628815006E-002
 -0.228881835937500       5.829841463227633E-002
 -0.225067138671875       5.897365531875753E-002
 -0.221252441406250       5.971656698130738E-002
 -0.217437744140625       6.053522733821341E-002
 -0.213623046875000       6.143883339160230E-002
 -0.209808349609375       6.243787757113229E-002
 -0.205993652343750       6.354435471104924E-002
 -0.202178955078125       6.477200572752514E-002
 -0.198364257812500       6.613660503993064E-002
 -0.194549560546875       6.765630019235927E-002
 -0.190734863281250       6.935201382167164E-002
 -0.188827514648438       7.027329020634304E-002
 -0.186920166015625       7.124792012952913E-002
 -0.185012817382812       7.227952614838015E-002
 -0.183105468750000       7.337201039151750E-002
 -0.181198120117188       7.452957834873278E-002
 -0.179290771484375       7.575676481247814E-002
 -0.177383422851562       7.705846216630237E-002
 -0.175476074218750       7.843995123079381E-002
 -0.173568725585938       7.990693489339903E-002
 -0.171661376953125       8.146557476442759E-002
 -0.169754028320312       8.312253111724768E-002
 -0.167846679687500       8.488500638561265E-002
 -0.165939331054688       8.676079250453569E-002
 -0.164031982421875       8.875832239223787E-002
 -0.162124633789062       9.088672587822511E-002
 -0.160217285156250       9.315589038494747E-002
 -0.158309936523438       9.557652666574690E-002
 -0.156402587890625       9.816023988734382E-002
 -0.154495239257812       0.100919606317686     
 -0.152587890625000       0.103868255835475     
 -0.150680541992188       0.107020960410923     
 -0.148773193359375       0.110393728611882     
 -0.146865844726562       0.114003906057384     
 -0.144958496093750       0.117870281562141     
 -0.143051147460938       0.122013198478621     
 -0.141143798828125       0.126454670433510     
 -0.139236450195312       0.131218500255387     
 -0.137329101562500       0.136330400379711     
 -0.135421752929688       0.141818112371849     
 -0.134468078613281       0.144712150461963     
 -0.133514404296875       0.147711522401611     
 -0.132560729980469       0.150820316670961     
 -0.131607055664062       0.154042768502857     
 -0.130653381347656       0.157383262392094     
 -0.129699707031250       0.160846334226474     
 -0.128746032714844       0.164436672968730     
 -0.127792358398438       0.168159121810279     
 -0.126838684082031       0.172018678708910     
 -0.125885009765625       0.176020496213043     
 -0.124931335449219       0.180169880465060     
 -0.123977661132812       0.184472289265390     
 -0.123023986816406       0.188933329067682     
 -0.122070312500000       0.193558750763384     
 -0.121116638183594       0.198354444101689     
 -0.120162963867188       0.203326430577987     
 -0.119209289550781       0.208480854610999     
 -0.118255615234375       0.213823972815773     
 -0.117301940917969       0.219362141166962     
 -0.116348266601562       0.225101799834613     
 -0.115394592285156       0.231049455463386     
 -0.114440917968750       0.237211660656203     
 -0.113487243652344       0.243594990415302     
 -0.112533569335938       0.250206015288157     
 -0.111579895019531       0.257051270963450     
 -0.110626220703125       0.264137224064074     
 -0.109672546386719       0.271470233890898     
 -0.108718872070312       0.279056509883811     
 -0.107765197753906       0.286902064586450     
 -0.106811523437500       0.295012661929266     
 -0.105857849121094       0.303393760683381     
 -0.104904174804688       0.312050452986467     
 -0.103950500488281       0.320987397902750     
 -0.102996826171875       0.330208750053654     
 -0.102043151855469       0.339718083444443     
 -0.101089477539062       0.349518310716597     
 -0.100135803222656       0.359611598176033     
 -9.918212890625000E-002  0.369999277083848     
 -9.822845458984375E-002  0.380681751848808     
 -9.727478027343750E-002  0.391658405928042     
 -9.632110595703125E-002  0.402927506422787     
 -9.536743164062500E-002  0.414486108546480     
 -9.441375732421875E-002  0.426329961339427     
 -9.346008300781250E-002  0.438453416202409     
 -9.250640869140625E-002  0.450849340014857     
 -9.155273437500000E-002  0.463509034784006     
 -9.059906005859375E-002  0.476422165931167     
 -8.964538574218750E-002  0.489576701450170     
 -8.869171142578125E-002  0.502958864260837     
 -8.773803710937500E-002  0.516553100116158     
 -8.678436279296875E-002  0.530342063395077     
 -8.583068847656250E-002  0.544306623013496     
 -8.487701416015625E-002  0.558425890505809     
 -8.392333984375000E-002  0.572677272061678     
 -8.201599121093750E-002  0.601477966270058     
 -8.010864257812500E-002  0.630497452109444     
 -7.820129394531250E-002  0.659504900300019     
 -7.629394531250000E-002  0.688256120269457     
 -7.534027099609375E-002  0.702457527002922     
 -7.438659667968750E-002  0.716501147626381     
 -7.343292236328125E-002  0.730356237334709     
 -7.247924804687500E-002  0.743992784140442     
 -7.152557373046875E-002  0.757381786782758     
 -7.057189941406250E-002  0.770495523037625     
 -6.961822509765625E-002  0.783307803156617     
 -6.866455078125000E-002  0.795794203467374     
 -6.771087646484375E-002  0.807932275641107     
 -6.675720214843750E-002  0.819701727754016     
 -6.580352783203125E-002  0.831084574014362     
 -6.484985351562500E-002  0.842065250863684     
 -6.389617919921875E-002  0.852630698053567     
 -6.294250488281250E-002  0.862770404211083     
 -6.198883056640625E-002  0.872476417299251     
 -6.103515625000000E-002  0.881743321219297     
 -6.008148193359375E-002  0.890568180558820     
 -5.912780761718750E-002  0.898950456140133     
 -5.817413330078125E-002  0.906891894548452     
 -5.722045898437500E-002  0.914396395210126     
 -5.626678466796875E-002  0.921469858843596     
 -5.531311035156250E-002  0.928120021223659     
 -5.435943603515625E-002  0.934356276192062     
 -5.340576171875000E-002  0.940189491728054     
 -5.245208740234375E-002  0.945631822678074     
 -5.149841308593750E-002  0.950696523453146     
 -5.054473876953125E-002  0.955397763655145     
 -4.959106445312500E-002  0.959750449208133     
 -4.863739013671875E-002  0.963770051166204     
 -4.768371582031250E-002  0.967472443960816     
 -4.673004150390625E-002  0.970873754451945     
 -4.577636718750000E-002  0.973990222769708     
 -4.482269287109375E-002  0.976838075584761     
 -4.386901855468750E-002  0.979433412132713     
 -4.291534423828125E-002  0.981792103043562     
 -4.196166992187500E-002  0.983929701793418     
 -4.100799560546875E-002  0.985861368402264     
 -4.005432128906250E-002  0.987601804846868     
 -3.910064697265625E-002  0.989165201539553     
 -3.814697265625000E-002  0.990565194138231     
 -3.719329833984375E-002  0.991814829897176     
 -3.623962402343750E-002  0.992926542737538     
 -3.528594970703125E-002  0.993912136207791     
 -3.433227539062500E-002  0.994782773513207     
 -3.242492675781250E-002  0.996220614047254     
 -3.051757812500000E-002  0.997316554521861     
 -2.861022949218750E-002  0.998137114218148     
 -2.670288085937500E-002  0.998739333961649     
 -2.479553222656250E-002  0.999171424994803     
 -2.288818359375000E-002  0.999473517806478     
 -2.098083496093750E-002  0.999678466432625     
 -1.907348632812500E-002  0.999812674139955     
 -1.525878906250000E-002  0.999947132835294     
 -1.144409179687500E-002  0.999989653227426     
 -7.629394531250000E-003  0.999998961582077     
  0.000000000000000E+000   1.00000000000000     
# end ! pressure-saturation
