Title = "_x0.5_ Hydrograph"
variables="Time","Surface","Porous media","Total"
zone t="_x0.5_"
  0.100000000E-004  0.000000000E+000 -0.400011069E-024 -0.400011069E-024
  0.229217180E-004  0.000000000E+000 -0.400011125E-024 -0.400011125E-024
  0.487651539E-004  0.000000000E+000 -0.400011215E-024 -0.400011215E-024
  0.100452026E-003  0.000000000E+000 -0.400011332E-024 -0.400011332E-024
  0.203825770E-003  0.000000000E+000 -0.401521037E-024 -0.401521037E-024
  0.410573257E-003  0.000000000E+000 -0.772144195E-023 -0.772144195E-023
  0.824068232E-003  0.000000000E+000 -0.235266501E-020 -0.235266501E-020
  0.165105818E-002  0.000000000E+000 -0.250529985E-018 -0.250529985E-018
  0.330503808E-002  0.000000000E+000 -0.312083618E-017 -0.312083618E-017
  0.661299788E-002  0.000000000E+000 -0.278377926E-016 -0.278377926E-016
  0.132289175E-001  0.000000000E+000 -0.835972062E-016 -0.835972062E-016
  0.264607567E-001  0.000000000E+000 -0.111791370E-015 -0.111791370E-015
  0.529244351E-001  0.000000000E+000 -0.131919520E-015 -0.131919520E-015
  0.105851792E+000  0.000000000E+000 -0.148622879E-015 -0.148622879E-015
  0.211706506E+000  0.000000000E+000 -0.166045721E-015 -0.166045721E-015
  0.423415933E+000  0.000000000E+000 -0.184899754E-015 -0.184899754E-015
  0.846834787E+000  0.000000000E+000 -0.205482033E-015 -0.205482033E-015
  0.169367250E+001  0.000000000E+000 -0.227939793E-015 -0.227939793E-015
  0.289393167E+001  0.000000000E+000 -0.245812660E-015 -0.245812660E-015
  0.445063180E+001  0.000000000E+000 -0.260936263E-015 -0.260936263E-015
  0.639010731E+001  0.000000000E+000 -0.274303766E-015 -0.274303766E-015
  0.876575611E+001  0.000000000E+000 -0.286524035E-015 -0.286524035E-015
  0.116581236E+002  0.000000000E+000 -0.297988019E-015 -0.297988019E-015
  0.151806649E+002  0.000000000E+000 -0.308966610E-015 -0.308966610E-015
  0.194898323E+002  0.000000000E+000 -0.319660808E-015 -0.319660808E-015
  0.247969402E+002  0.000000000E+000 -0.330223124E-015 -0.330223124E-015
  0.313994420E+002  0.000000000E+000 -0.340789911E-015 -0.340789911E-015
  0.395316316E+002  0.000000000E+000 -0.351296151E-015 -0.351296151E-015
  0.494966337E+002  0.000000000E+000 -0.361729106E-015 -0.361729106E-015
  0.615967736E+002  0.000000000E+000 -0.372047279E-015 -0.372047279E-015
  0.762328442E+002  0.000000000E+000 -0.382258971E-015 -0.382258971E-015
  0.938518939E+002  0.000000000E+000 -0.392364409E-015 -0.392364409E-015
  0.115018532E+003  0.000000000E+000 -0.402384540E-015 -0.402384540E-015
  0.140337656E+003  0.000000000E+000 -0.412320058E-015 -0.412320058E-015
  0.168607251E+003  0.000000000E+000 -0.421708231E-015 -0.421708231E-015
  0.199800655E+003  0.000000000E+000 -0.430577705E-015 -0.430577705E-015
  0.234146891E+003  0.000000000E+000 -0.439012361E-015 -0.439012361E-015
  0.271979222E+003  0.000000000E+000 -0.447092731E-015 -0.447092731E-015
  0.313972401E+003  0.000000000E+000 -0.454927108E-015 -0.454927108E-015
  0.361062193E+003  0.000000000E+000 -0.462619468E-015 -0.462619468E-015
  0.414620661E+003  0.000000000E+000 -0.470281954E-015 -0.470281954E-015
  0.476113514E+003  0.000000000E+000 -0.477984736E-015 -0.477984736E-015
  0.548253254E+003  0.000000000E+000 -0.485866276E-015 -0.485866276E-015
  0.634154781E+003  0.000000000E+000 -0.494015731E-015 -0.494015731E-015
  0.739002236E+003  0.000000000E+000 -0.502584450E-015 -0.502584450E-015
  0.870066657E+003  0.000000000E+000 -0.511718538E-015 -0.511718538E-015
  0.103791838E+004  0.000000000E+000 -0.521569701E-015 -0.521569701E-015
  0.125943183E+004  0.000000000E+000 -0.532338984E-015 -0.532338984E-015
  0.156104626E+004  0.000000000E+000 -0.546692319E-015 -0.546692319E-015
  0.198421156E+004  0.000000000E+000 -0.562557806E-015 -0.562557806E-015
  0.259195812E+004  0.000000000E+000 -0.582521774E-015 -0.582521774E-015
  0.349104276E+004  0.000000000E+000 -0.605525947E-015 -0.605525947E-015
  0.487205626E+004  0.000000000E+000 -0.636194225E-015 -0.636194225E-015
  0.709279411E+004  0.000000000E+000 -0.680914288E-015 -0.680914288E-015
  0.109047395E+005  0.000000000E+000 -0.745640308E-015 -0.745640308E-015
  0.178500716E+005  0.000000000E+000 -0.846722961E-015 -0.846722961E-015
  0.270456014E+005  0.000000000E+000 -0.980014491E-015 -0.980014491E-015
  0.380771961E+005  0.000000000E+000 -0.114694934E-014 -0.114694934E-014
  0.520036179E+005  0.000000000E+000 -0.135212405E-014 -0.135212405E-014
  0.718583752E+005  0.000000000E+000 -0.156548936E-014 -0.156548936E-014
  0.102625301E+006  0.000000000E+000 -0.168770274E-014 -0.168770274E-014
  0.164159152E+006  0.000000000E+000 -0.171863114E-014 -0.171863114E-014
  0.287226853E+006  0.000000000E+000 -0.172186013E-014 -0.172186013E-014
  0.533362257E+006  0.000000000E+000 -0.172203842E-014 -0.172203842E-014
  0.102563306E+007  0.000000000E+000 -0.172204354E-014 -0.172204354E-014
  0.201017468E+007  0.000000000E+000 -0.172204372E-014 -0.172204372E-014
  0.301017468E+007  0.000000000E+000 -0.172204373E-014 -0.172204373E-014
  0.401017468E+007  0.000000000E+000 -0.172204374E-014 -0.172204374E-014
  0.501017468E+007  0.000000000E+000 -0.172204375E-014 -0.172204375E-014
  0.601017468E+007  0.000000000E+000 -0.172204376E-014 -0.172204376E-014
  0.689308734E+007  0.000000000E+000 -0.172204377E-014 -0.172204377E-014
  0.777600000E+007  0.000000000E+000 -0.172204378E-014 -0.172204378E-014
  0.777600000E+007  0.000000000E+000 -0.172204378E-014 -0.172204378E-014
  0.777600000E+007  0.000000000E+000 -0.172204378E-014 -0.172204378E-014
  0.777600000E+007  0.000000000E+000 -0.172204378E-014 -0.172204378E-014
  0.777600001E+007  0.000000000E+000 -0.172204378E-014 -0.172204378E-014
  0.777600002E+007  0.000000000E+000 -0.172204378E-014 -0.172204378E-014
  0.777600003E+007  0.000000000E+000 -0.172204378E-014 -0.172204378E-014
  0.777600004E+007  0.000000000E+000 -0.172204378E-014 -0.172204378E-014
  0.777600005E+007  0.000000000E+000 -0.172204378E-014 -0.172204378E-014
  0.777600006E+007  0.000000000E+000 -0.172204378E-014 -0.172204378E-014
  0.777600008E+007  0.000000000E+000 -0.172204378E-014 -0.172204378E-014
  0.777600009E+007  0.000000000E+000 -0.172204378E-014 -0.172204378E-014
  0.777600010E+007  0.000000000E+000 -0.172204378E-014 -0.172204378E-014
  0.777600011E+007  0.000000000E+000 -0.172204378E-014 -0.172204378E-014
  0.777600012E+007  0.000000000E+000 -0.172204378E-014 -0.172204378E-014
  0.777600014E+007  0.000000000E+000 -0.172204378E-014 -0.172204378E-014
  0.777600015E+007  0.000000000E+000 -0.172204378E-014 -0.172204378E-014
  0.777600016E+007  0.000000000E+000 -0.172204378E-014 -0.172204378E-014
  0.777600018E+007  0.000000000E+000 -0.172204378E-014 -0.172204378E-014
  0.777600019E+007  0.000000000E+000 -0.172204378E-014 -0.172204378E-014
  0.777600021E+007  0.000000000E+000 -0.172204378E-014 -0.172204378E-014
  0.777600022E+007  0.000000000E+000 -0.172204378E-014 -0.172204378E-014
  0.777600023E+007  0.000000000E+000 -0.172204378E-014 -0.172204378E-014
  0.777600024E+007  0.000000000E+000 -0.172204378E-014 -0.172204378E-014
  0.777600026E+007  0.000000000E+000 -0.172204378E-014 -0.172204378E-014
  0.777600029E+007  0.000000000E+000 -0.172204378E-014 -0.172204378E-014
  0.777600034E+007  0.000000000E+000 -0.172204378E-014 -0.172204378E-014
  0.777600039E+007  0.000000000E+000 -0.172204378E-014 -0.172204378E-014
  0.777600044E+007  0.000000000E+000 -0.172204378E-014 -0.172204378E-014
  0.777600050E+007  0.000000000E+000 -0.172204378E-014 -0.172204378E-014
  0.777600057E+007  0.000000000E+000 -0.172204378E-014 -0.172204378E-014
  0.777600063E+007  0.000000000E+000 -0.172204378E-014 -0.172204378E-014
  0.777600069E+007  0.000000000E+000 -0.172204378E-014 -0.172204378E-014
  0.777600073E+007  0.000000000E+000 -0.172204378E-014 -0.172204378E-014
  0.777600078E+007  0.000000000E+000 -0.172204378E-014 -0.172204378E-014
  0.777600082E+007  0.000000000E+000 -0.172204378E-014 -0.172204378E-014
  0.777600086E+007  0.000000000E+000 -0.172204378E-014 -0.172204378E-014
  0.777600091E+007  0.000000000E+000 -0.172204378E-014 -0.172204378E-014
  0.777600095E+007  0.000000000E+000 -0.172204378E-014 -0.172204378E-014
  0.777600099E+007  0.000000000E+000 -0.172204378E-014 -0.172204378E-014
  0.777600104E+007  0.000000000E+000 -0.172204378E-014 -0.172204378E-014
  0.777600109E+007  0.000000000E+000 -0.172204378E-014 -0.172204378E-014
  0.777600114E+007  0.000000000E+000 -0.172204378E-014 -0.172204378E-014
  0.777600119E+007  0.000000000E+000 -0.172204378E-014 -0.172204378E-014
  0.777600126E+007  0.000000000E+000 -0.172204378E-014 -0.172204378E-014
  0.777600132E+007  0.000000000E+000 -0.172204378E-014 -0.172204378E-014
  0.777600140E+007  0.000000000E+000 -0.172204378E-014 -0.172204378E-014
  0.777600150E+007  0.000000000E+000 -0.172204378E-014 -0.172204378E-014
  0.777600159E+007  0.000000000E+000 -0.172204378E-014 -0.172204378E-014
  0.777600166E+007  0.000000000E+000 -0.172204378E-014 -0.172204378E-014
  0.777600174E+007  0.000000000E+000 -0.172204378E-014 -0.172204378E-014
  0.777600181E+007  0.000000000E+000 -0.172204378E-014 -0.172204378E-014
  0.777600189E+007  0.000000000E+000 -0.172204378E-014 -0.172204378E-014
  0.777600197E+007  0.000000000E+000 -0.172204378E-014 -0.172204378E-014
  0.777600206E+007  0.000000000E+000 -0.172204378E-014 -0.172204378E-014
  0.777600215E+007  0.000000000E+000 -0.172204378E-014 -0.172204378E-014
  0.777600226E+007  0.000000000E+000 -0.172204378E-014 -0.172204378E-014
  0.777600238E+007  0.000000000E+000 -0.172204378E-014 -0.172204378E-014
  0.777600251E+007  0.000000000E+000 -0.172204378E-014 -0.172204378E-014
  0.777600266E+007  0.000000000E+000 -0.172204378E-014 -0.172204378E-014
  0.777600284E+007  0.000000000E+000 -0.172204378E-014 -0.172204378E-014
  0.777600300E+007  0.000000000E+000 -0.172204378E-014 -0.172204378E-014
  0.777600312E+007  0.000000000E+000 -0.172204378E-014 -0.172204378E-014
  0.777600323E+007  0.000000000E+000 -0.172204378E-014 -0.172204378E-014
  0.777600333E+007  0.000000000E+000 -0.172204378E-014 -0.172204378E-014
  0.777600342E+007  0.000000000E+000 -0.172204378E-014 -0.172204378E-014
  0.777600351E+007  0.000000000E+000 -0.172204378E-014 -0.172204378E-014
  0.777600360E+007  0.000000000E+000 -0.172204378E-014 -0.172204378E-014
  0.777600369E+007  0.000000000E+000 -0.172204378E-014 -0.172204378E-014
  0.777600378E+007  0.000000000E+000 -0.172204378E-014 -0.172204378E-014
  0.777600388E+007  0.000000000E+000 -0.172204378E-014 -0.172204378E-014
  0.777600399E+007  0.000000000E+000 -0.172204378E-014 -0.172204378E-014
  0.777600411E+007  0.000000000E+000 -0.172204378E-014 -0.172204378E-014
  0.777600424E+007  0.000000000E+000 -0.172204378E-014 -0.172204378E-014
  0.777600439E+007  0.000000000E+000 -0.172204378E-014 -0.172204378E-014
  0.777600454E+007  0.000000000E+000 -0.172204378E-014 -0.172204378E-014
  0.777600466E+007  0.000000000E+000 -0.172204378E-014 -0.172204378E-014
  0.777600479E+007  0.000000000E+000 -0.172204378E-014 -0.172204378E-014
  0.777600491E+007  0.000000000E+000 -0.172204378E-014 -0.172204378E-014
  0.777600502E+007  0.000000000E+000 -0.172204378E-014 -0.172204378E-014
  0.777600514E+007  0.000000000E+000 -0.172204378E-014 -0.172204378E-014
  0.777600526E+007  0.000000000E+000 -0.172204378E-014 -0.172204378E-014
  0.777600539E+007  0.000000000E+000 -0.172204378E-014 -0.172204378E-014
  0.777600553E+007  0.000000000E+000 -0.172204378E-014 -0.172204378E-014
  0.777600568E+007  0.000000000E+000 -0.172204378E-014 -0.172204378E-014
  0.777600584E+007  0.000000000E+000 -0.172204378E-014 -0.172204378E-014
  0.777600604E+007  0.000000000E+000 -0.172204378E-014 -0.172204378E-014
  0.777600621E+007  0.000000000E+000 -0.172204378E-014 -0.172204378E-014
  0.777600637E+007  0.000000000E+000 -0.172204378E-014 -0.172204378E-014
  0.777600653E+007  0.000000000E+000 -0.172204378E-014 -0.172204378E-014
  0.777600670E+007  0.000000000E+000 -0.172204378E-014 -0.172204378E-014
  0.777600688E+007  0.000000000E+000 -0.172204378E-014 -0.172204378E-014
  0.777600707E+007  0.000000000E+000 -0.172204378E-014 -0.172204378E-014
  0.777600728E+007  0.000000000E+000 -0.172204378E-014 -0.172204378E-014
  0.777600746E+007  0.000000000E+000 -0.172204378E-014 -0.172204378E-014
  0.777600762E+007  0.000000000E+000 -0.172204378E-014 -0.172204378E-014
  0.777600777E+007  0.000000000E+000 -0.172204378E-014 -0.172204378E-014
  0.777600790E+007  0.000000000E+000 -0.172204378E-014 -0.172204378E-014
  0.777600804E+007  0.000000000E+000 -0.172204378E-014 -0.172204378E-014
  0.777600817E+007  0.000000000E+000 -0.172204378E-014 -0.172204378E-014
  0.777600831E+007  0.000000000E+000 -0.172204378E-014 -0.172204378E-014
  0.777600847E+007  0.000000000E+000 -0.172204377E-014 -0.172204377E-014
  0.777600863E+007  0.000000000E+000 -0.172204377E-014 -0.172204377E-014
  0.777600881E+007  0.000000000E+000 -0.172204377E-014 -0.172204377E-014
  0.777600902E+007  0.000000000E+000 -0.172204377E-014 -0.172204377E-014
  0.777600922E+007  0.000000000E+000 -0.172204376E-014 -0.172204376E-014
  0.777600941E+007  0.000000000E+000 -0.172204376E-014 -0.172204376E-014
  0.777600960E+007  0.000000000E+000 -0.172204375E-014 -0.172204375E-014
  0.777600978E+007  0.000000000E+000 -0.172204375E-014 -0.172204375E-014
  0.777600996E+007  0.000000000E+000 -0.172204374E-014 -0.172204374E-014
  0.777601014E+007  0.000000000E+000 -0.172204373E-014 -0.172204373E-014
  0.777601033E+007  0.000000000E+000 -0.172204372E-014 -0.172204372E-014
  0.777601052E+007  0.000000000E+000 -0.172204371E-014 -0.172204371E-014
  0.777601072E+007  0.000000000E+000 -0.172204370E-014 -0.172204370E-014
  0.777601095E+007  0.000000000E+000 -0.172204368E-014 -0.172204368E-014
  0.777601118E+007  0.000000000E+000 -0.172204366E-014 -0.172204366E-014
  0.777601141E+007  0.000000000E+000 -0.172204364E-014 -0.172204364E-014
  0.777601162E+007  0.000000000E+000 -0.172204361E-014 -0.172204361E-014
  0.777601182E+007  0.000000000E+000 -0.172204358E-014 -0.172204358E-014
  0.777601201E+007  0.000000000E+000 -0.172204355E-014 -0.172204355E-014
  0.777601221E+007  0.000000000E+000 -0.172204352E-014 -0.172204352E-014
  0.777601241E+007  0.000000000E+000 -0.172204347E-014 -0.172204347E-014
  0.777601264E+007  0.000000000E+000 -0.172204342E-014 -0.172204342E-014
  0.777601289E+007  0.000000000E+000 -0.172204335E-014 -0.172204335E-014
  0.777601319E+007  0.000000000E+000 -0.172204326E-014 -0.172204326E-014
  0.777601351E+007  0.000000000E+000 -0.172204313E-014 -0.172204313E-014
  0.777601381E+007  0.000000000E+000 -0.172204300E-014 -0.172204300E-014
  0.777601406E+007  0.000000000E+000 -0.172204287E-014 -0.172204287E-014
  0.777601429E+007  0.000000000E+000 -0.172204274E-014 -0.172204274E-014
  0.777601450E+007  0.000000000E+000 -0.172204260E-014 -0.172204260E-014
  0.777601469E+007  0.000000000E+000 -0.172204247E-014 -0.172204247E-014
  0.777601489E+007  0.000000000E+000 -0.172204231E-014 -0.172204231E-014
  0.777601510E+007  0.000000000E+000 -0.172204213E-014 -0.172204213E-014
  0.777601532E+007  0.000000000E+000 -0.172204192E-014 -0.172204192E-014
  0.777601556E+007  0.000000000E+000 -0.172204166E-014 -0.172204166E-014
  0.777601583E+007  0.000000000E+000 -0.172204133E-014 -0.172204133E-014
  0.777601613E+007  0.000000000E+000 -0.172204092E-014 -0.172204092E-014
  0.777601640E+007  0.000000000E+000 -0.172204049E-014 -0.172204049E-014
  0.777601666E+007  0.000000000E+000 -0.172204002E-014 -0.172204002E-014
  0.777601692E+007  0.000000000E+000 -0.172203950E-014 -0.172203950E-014
  0.777601718E+007  0.000000000E+000 -0.172203892E-014 -0.172203892E-014
  0.777601744E+007  0.000000000E+000 -0.172203825E-014 -0.172203825E-014
  0.777601771E+007  0.000000000E+000 -0.172203748E-014 -0.172203748E-014
  0.777601800E+007  0.000000000E+000 -0.172203656E-014 -0.172203656E-014
  0.777601831E+007  0.000000000E+000 -0.172203543E-014 -0.172203543E-014
  0.777601863E+007  0.000000000E+000 -0.172203413E-014 -0.172203413E-014
  0.777601892E+007  0.000000000E+000 -0.172203279E-014 -0.172203279E-014
  0.777601920E+007  0.000000000E+000 -0.172203138E-014 -0.172203138E-014
  0.777601947E+007  0.000000000E+000 -0.172202986E-014 -0.172202986E-014
  0.777601974E+007  0.000000000E+000 -0.172202821E-014 -0.172202821E-014
  0.777602001E+007  0.000000000E+000 -0.172202638E-014 -0.172202638E-014
  0.777602029E+007  0.000000000E+000 -0.172202432E-014 -0.172202432E-014
  0.777602058E+007  0.000000000E+000 -0.172202198E-014 -0.172202198E-014
  0.777602088E+007  0.000000000E+000 -0.172201925E-014 -0.172201925E-014
  0.777602121E+007  0.000000000E+000 -0.172201597E-014 -0.172201597E-014
  0.777602150E+007  0.000000000E+000 -0.172201288E-014 -0.172201288E-014
  0.777602179E+007  0.000000000E+000 -0.172200945E-014 -0.172200945E-014
  0.777602209E+007  0.000000000E+000 -0.172200561E-014 -0.172200561E-014
  0.777602240E+007  0.000000000E+000 -0.172200121E-014 -0.172200121E-014
  0.777602273E+007  0.000000000E+000 -0.172199601E-014 -0.172199601E-014
  0.777602310E+007  0.000000000E+000 -0.172198960E-014 -0.172198960E-014
  0.777602348E+007  0.000000000E+000 -0.172198238E-014 -0.172198238E-014
  0.777602380E+007  0.000000000E+000 -0.172197558E-014 -0.172197558E-014
  0.777602410E+007  0.000000000E+000 -0.172196873E-014 -0.172196873E-014
  0.777602437E+007  0.000000000E+000 -0.172196192E-014 -0.172196192E-014
  0.777602466E+007  0.000000000E+000 -0.172195417E-014 -0.172195417E-014
  0.777602497E+007  0.000000000E+000 -0.172194518E-014 -0.172194518E-014
  0.777602530E+007  0.000000000E+000 -0.172193441E-014 -0.172193441E-014
  0.777602568E+007  0.000000000E+000 -0.172192105E-014 -0.172192105E-014
  0.777602608E+007  0.000000000E+000 -0.172190536E-014 -0.172190536E-014
  0.777602645E+007  0.000000000E+000 -0.172188919E-014 -0.172188919E-014
  0.777602681E+007  0.000000000E+000 -0.172187180E-014 -0.172187180E-014
  0.777602718E+007  0.000000000E+000 -0.172185273E-014 -0.172185273E-014
  0.777602755E+007  0.000000000E+000 -0.172183136E-014 -0.172183136E-014
  0.777602795E+007  0.000000000E+000 -0.172180692E-014 -0.172180692E-014
  0.777602836E+007  0.000000000E+000 -0.172177831E-014 -0.172177831E-014
  0.777602881E+007  0.000000000E+000 -0.172174466E-014 -0.172174466E-014
  0.777602922E+007  0.000000000E+000 -0.172171116E-014 -0.172171116E-014
  0.777602961E+007  0.000000000E+000 -0.172167637E-014 -0.172167637E-014
  0.777603000E+007  0.000000000E+000 -0.172163962E-014 -0.172163962E-014
  0.777603039E+007  0.000000000E+000 -0.172160003E-014 -0.172160003E-014
  0.777603078E+007  0.000000000E+000 -0.172155655E-014 -0.172155655E-014
  0.777603119E+007  0.000000000E+000 -0.172150771E-014 -0.172150771E-014
  0.777603163E+007  0.000000000E+000 -0.172145134E-014 -0.172145134E-014
  0.777603205E+007  0.000000000E+000 -0.172139425E-014 -0.172139425E-014
  0.777603244E+007  0.000000000E+000 -0.172133643E-014 -0.172133643E-014
  0.777603281E+007  0.000000000E+000 -0.172127619E-014 -0.172127619E-014
  0.777603320E+007  0.000000000E+000 -0.172121111E-014 -0.172121111E-014
  0.777603358E+007  0.000000000E+000 -0.172114176E-014 -0.172114176E-014
  0.777603397E+007  0.000000000E+000 -0.172106442E-014 -0.172106442E-014
  0.777603441E+007  0.000000000E+000 -0.172097185E-014 -0.172097185E-014
  0.777603485E+007  0.000000000E+000 -0.172087263E-014 -0.172087263E-014
  0.777603527E+007  0.000000000E+000 -0.172076896E-014 -0.172076896E-014
  0.777603570E+007  0.000000000E+000 -0.172065669E-014 -0.172065669E-014
  0.777603614E+007  0.000000000E+000 -0.172053165E-014 -0.172053165E-014
  0.777603661E+007  0.000000000E+000 -0.172038494E-014 -0.172038494E-014
  0.777603709E+007  0.000000000E+000 -0.172022337E-014 -0.172022337E-014
  0.777603753E+007  0.000000000E+000 -0.172006614E-014 -0.172006614E-014
  0.777603796E+007  0.000000000E+000 -0.171990318E-014 -0.171990318E-014
  0.777603837E+007  0.000000000E+000 -0.171973437E-014 -0.171973437E-014
  0.777603883E+007  0.000000000E+000 -0.171953597E-014 -0.171953597E-014
  0.777603934E+007  0.000000000E+000 -0.171929775E-014 -0.171929775E-014
  0.777603989E+007  0.000000000E+000 -0.171902074E-014 -0.171902074E-014
  0.777604042E+007  0.000000000E+000 -0.171873508E-014 -0.171873508E-014
  0.777604095E+007  0.000000000E+000 -0.171843286E-014 -0.171843286E-014
  0.777604148E+007  0.000000000E+000 -0.171810430E-014 -0.171810430E-014
  0.777604205E+007  0.000000000E+000 -0.171773827E-014 -0.171773827E-014
  0.777604266E+007  0.000000000E+000 -0.171732053E-014 -0.171732053E-014
  0.777604326E+007  0.000000000E+000 -0.171688550E-014 -0.171688550E-014
  0.777604383E+007  0.000000000E+000 -0.171644901E-014 -0.171644901E-014
  0.777604440E+007  0.000000000E+000 -0.171599357E-014 -0.171599357E-014
  0.777604497E+007  0.000000000E+000 -0.171550444E-014 -0.171550444E-014
  0.777604557E+007  0.000000000E+000 -0.171496374E-014 -0.171496374E-014
  0.777604620E+007  0.000000000E+000 -0.171434728E-014 -0.171434728E-014
  0.777604679E+007  0.000000000E+000 -0.171373741E-014 -0.171373741E-014
  0.777604735E+007  0.000000000E+000 -0.171310820E-014 -0.171310820E-014
  0.777604791E+007  0.000000000E+000 -0.171243975E-014 -0.171243975E-014
  0.777604848E+007  0.000000000E+000 -0.171171011E-014 -0.171171011E-014
  0.777604907E+007  0.000000000E+000 -0.171089217E-014 -0.171089217E-014
  0.777604968E+007  0.000000000E+000 -0.170996250E-014 -0.170996250E-014
  0.777605025E+007  0.000000000E+000 -0.170904503E-014 -0.170904503E-014
  0.777605080E+007  0.000000000E+000 -0.170809927E-014 -0.170809927E-014
  0.777605135E+007  0.000000000E+000 -0.170708297E-014 -0.170708297E-014
  0.777605191E+007  0.000000000E+000 -0.170600732E-014 -0.170600732E-014
  0.777605249E+007  0.000000000E+000 -0.170481542E-014 -0.170481542E-014
  0.777605311E+007  0.000000000E+000 -0.170348468E-014 -0.170348468E-014
  0.777605369E+007  0.000000000E+000 -0.170216462E-014 -0.170216462E-014
  0.777605428E+007  0.000000000E+000 -0.170078464E-014 -0.170078464E-014
  0.777605487E+007  0.000000000E+000 -0.169930420E-014 -0.169930420E-014
  0.777605551E+007  0.000000000E+000 -0.169767674E-014 -0.169767674E-014
  0.777605621E+007  0.000000000E+000 -0.169580609E-014 -0.169580609E-014
  0.777605687E+007  0.000000000E+000 -0.169397469E-014 -0.169397469E-014
  0.777605753E+007  0.000000000E+000 -0.169209366E-014 -0.169209366E-014
  0.777605819E+007  0.000000000E+000 -0.169013840E-014 -0.169013840E-014
  0.777605889E+007  0.000000000E+000 -0.168801354E-014 -0.168801354E-014
  0.777605962E+007  0.000000000E+000 -0.168573895E-014 -0.168573895E-014
  0.777606040E+007  0.000000000E+000 -0.168325050E-014 -0.168325050E-014
  0.777606123E+007  0.000000000E+000 -0.168055281E-014 -0.168055281E-014
  0.777606210E+007  0.000000000E+000 -0.167764475E-014 -0.167764475E-014
  0.777606294E+007  0.000000000E+000 -0.167480262E-014 -0.167480262E-014
  0.777606379E+007  0.000000000E+000 -0.167190450E-014 -0.167190450E-014
  0.777606465E+007  0.000000000E+000 -0.166860837E-014 -0.166860837E-014
  0.777606556E+007  0.000000000E+000 -0.166478754E-014 -0.166478754E-014
  0.777606649E+007  0.000000000E+000 -0.166046443E-014 -0.166046443E-014
  0.777606738E+007  0.000000000E+000 -0.165572543E-014 -0.165572543E-014
  0.777606827E+007  0.000000000E+000 -0.165032109E-014 -0.165032109E-014
  0.777606918E+007  0.000000000E+000 -0.164404792E-014 -0.164404792E-014
  0.777607011E+007  0.000000000E+000 -0.163702231E-014 -0.163702231E-014
  0.777607099E+007  0.000000000E+000 -0.162984115E-014 -0.162984115E-014
  0.777607185E+007  0.000000000E+000 -0.162230810E-014 -0.162230810E-014
  0.777607273E+007  0.000000000E+000 -0.161428123E-014 -0.161428123E-014
  0.777607365E+007  0.000000000E+000 -0.160557804E-014 -0.160557804E-014
  0.777607452E+007  0.000000000E+000 -0.159724925E-014 -0.159724925E-014
  0.777607536E+007  0.000000000E+000 -0.158905638E-014 -0.158905638E-014
  0.777607621E+007  0.000000000E+000 -0.158078550E-014 -0.158078550E-014
  0.777607708E+007  0.000000000E+000 -0.157240006E-014 -0.157240006E-014
  0.777607801E+007  0.000000000E+000 -0.156354576E-014 -0.156354576E-014
  0.777607888E+007  0.000000000E+000 -0.155516856E-014 -0.155516856E-014
  0.777607971E+007  0.000000000E+000 -0.154735989E-014 -0.154735989E-014
  0.777608056E+007  0.000000000E+000 -0.153926528E-014 -0.153926528E-014
  0.777608148E+007  0.000000000E+000 -0.153062284E-014 -0.153062284E-014
  0.777608242E+007  0.000000000E+000 -0.152194578E-014 -0.152194578E-014
  0.777608332E+007  0.000000000E+000 -0.151359999E-014 -0.151359999E-014
  0.777608425E+007  0.000000000E+000 -0.150520071E-014 -0.150520071E-014
  0.777608521E+007  0.000000000E+000 -0.149668806E-014 -0.149668806E-014
  0.777608627E+007  0.000000000E+000 -0.148746966E-014 -0.148746966E-014
  0.777608741E+007  0.000000000E+000 -0.147755374E-014 -0.147755374E-014
  0.777608841E+007  0.000000000E+000 -0.146911656E-014 -0.146911656E-014
  0.777608943E+007  0.000000000E+000 -0.146056753E-014 -0.146056753E-014
  0.777609050E+007  0.000000000E+000 -0.145187652E-014 -0.145187652E-014
  0.777609165E+007  0.000000000E+000 -0.144283337E-014 -0.144283337E-014
  0.777609286E+007  0.000000000E+000 -0.142258040E-014 -0.142258040E-014
  0.777609401E+007  0.000000000E+000 -0.139817491E-014 -0.139817491E-014
  0.777609517E+007  0.000000000E+000 -0.136508521E-014 -0.136508521E-014
  0.777609637E+007  0.000000000E+000 -0.132296266E-014 -0.132296266E-014
  0.777609761E+007  0.000000000E+000 -0.127199298E-014 -0.127199298E-014
  0.777609887E+007  0.000000000E+000 -0.121642900E-014 -0.121642900E-014
  0.777610014E+007  0.000000000E+000 -0.115846337E-014 -0.115846337E-014
  0.777610142E+007  0.000000000E+000 -0.110166879E-014 -0.110166879E-014
  0.777610272E+007  0.000000000E+000 -0.104755259E-014 -0.104755259E-014
  0.777610403E+007  0.000000000E+000 -0.997112241E-015 -0.997112241E-015
  0.777610535E+007  0.000000000E+000 -0.951358544E-015 -0.951358544E-015
  0.777610668E+007  0.000000000E+000 -0.909914027E-015 -0.909914027E-015
  0.777610801E+007  0.000000000E+000 -0.872669383E-015 -0.872669383E-015
  0.777610938E+007  0.000000000E+000 -0.838426669E-015 -0.838426669E-015
  0.777611076E+007  0.000000000E+000 -0.807323214E-015 -0.807323214E-015
  0.777611212E+007  0.000000000E+000 -0.779886446E-015 -0.779886446E-015
  0.777611349E+007  0.000000000E+000 -0.754986393E-015 -0.754986393E-015
  0.777611488E+007  0.000000000E+000 -0.732127840E-015 -0.732127840E-015
  0.777611627E+007  0.000000000E+000 -0.711269449E-015 -0.711269449E-015
  0.777611763E+007  0.000000000E+000 -0.692567964E-015 -0.692567964E-015
  0.777611901E+007  0.000000000E+000 -0.676257282E-015 -0.676257282E-015
  0.777612048E+007  0.000000000E+000 -0.658765793E-015 -0.658765793E-015
  0.777612185E+007  0.000000000E+000 -0.643360613E-015 -0.643360613E-015
  0.777612322E+007  0.000000000E+000 -0.628122230E-015 -0.628122230E-015
  0.777612463E+007  0.000000000E+000 -0.612042694E-015 -0.612042694E-015
  0.777612608E+007  0.000000000E+000 -0.595215630E-015 -0.595215630E-015
  0.777612753E+007  0.000000000E+000 -0.578510731E-015 -0.578510731E-015
  0.777612897E+007  0.000000000E+000 -0.563040807E-015 -0.563040807E-015
  0.777613042E+007  0.000000000E+000 -0.549933007E-015 -0.549933007E-015
  0.777613189E+007  0.000000000E+000 -0.540431737E-015 -0.540431737E-015
  0.777613336E+007  0.000000000E+000 -0.536672405E-015 -0.536672405E-015
  0.777613484E+007  0.000000000E+000 -0.540000246E-015 -0.540000246E-015
  0.777613634E+007  0.000000000E+000 -0.552011899E-015 -0.552011899E-015
  0.777613783E+007  0.000000000E+000 -0.573904557E-015 -0.573904557E-015
  0.777613932E+007  0.000000000E+000 -0.605813303E-015 -0.605813303E-015
  0.777614084E+007  0.000000000E+000 -0.647166594E-015 -0.647166594E-015
  0.777614234E+007  0.000000000E+000 -0.697238781E-015 -0.697238781E-015
  0.777614387E+007  0.000000000E+000 -0.754628809E-015 -0.754628809E-015
  0.777614540E+007  0.000000000E+000 -0.818606216E-015 -0.818606216E-015
  0.777614693E+007  0.000000000E+000 -0.888679997E-015 -0.888679997E-015
  0.777614846E+007  0.000000000E+000 -0.965069696E-015 -0.965069696E-015
  0.777615000E+007  0.000000000E+000 -0.104901495E-014 -0.104901495E-014
  0.777615154E+007  0.000000000E+000 -0.114250151E-014 -0.114250151E-014
  0.777615312E+007  0.000000000E+000 -0.124878860E-014 -0.124878860E-014
  0.777615467E+007  0.000000000E+000 -0.137115799E-014 -0.137115799E-014
  0.777615623E+007  0.000000000E+000 -0.151377801E-014 -0.151377801E-014
  0.777615780E+007  0.000000000E+000 -0.168247729E-014 -0.168247729E-014
  0.777615937E+007  0.000000000E+000 -0.188435601E-014 -0.188435601E-014
  0.777616095E+007  0.000000000E+000 -0.212932812E-014 -0.212932812E-014
  0.777616255E+007  0.000000000E+000 -0.243141300E-014 -0.243141300E-014
  0.777616413E+007  0.000000000E+000 -0.280535741E-014 -0.280535741E-014
  0.777616572E+007  0.000000000E+000 -0.327467343E-014 -0.327467343E-014
  0.777616733E+007  0.000000000E+000 -0.387502521E-014 -0.387502521E-014
  0.777616892E+007  0.000000000E+000 -0.464949967E-014 -0.464949967E-014
  0.777617054E+007  0.000000000E+000 -0.567817328E-014 -0.567817328E-014
  0.777617215E+007  0.000000000E+000 -0.705561019E-014 -0.705561019E-014
  0.777617376E+007  0.000000000E+000 -0.894718017E-014 -0.894718017E-014
  0.777617538E+007  0.000000000E+000 -0.116344193E-013 -0.116344193E-013
  0.777617700E+007  0.000000000E+000 -0.155520883E-013 -0.155520883E-013
  0.777617863E+007  0.000000000E+000 -0.215505198E-013 -0.215505198E-013
  0.777618028E+007  0.000000000E+000 -0.312643859E-013 -0.312643859E-013
  0.777618190E+007  0.000000000E+000 -0.476699799E-013 -0.476699799E-013