Title = "_x1.1_ Hydrograph"
variables="Time","Surface","Porous media","Total"
zone t="_x1.1_"
  0.100000000E-004  0.000000000E+000 -0.400011096E-024 -0.400011096E-024
  0.229217180E-004  0.000000000E+000 -0.400011148E-024 -0.400011148E-024
  0.487651539E-004  0.000000000E+000 -0.400010824E-024 -0.400010824E-024
  0.100452026E-003  0.000000000E+000 -0.400010383E-024 -0.400010383E-024
  0.203825770E-003  0.000000000E+000 -0.401553972E-024 -0.401553972E-024
  0.410573257E-003  0.000000000E+000 -0.790415380E-023 -0.790415380E-023
  0.824068232E-003  0.000000000E+000 -0.238721826E-020 -0.238721826E-020
  0.165105818E-002  0.000000000E+000 -0.252198977E-018 -0.252198977E-018
  0.330503808E-002  0.000000000E+000 -0.312966950E-017 -0.312966950E-017
  0.661299788E-002  0.000000000E+000 -0.278352314E-016 -0.278352314E-016
  0.132289175E-001  0.000000000E+000 -0.835446984E-016 -0.835446984E-016
  0.264607567E-001  0.000000000E+000 -0.111749670E-015 -0.111749670E-015
  0.529244351E-001  0.000000000E+000 -0.131889689E-015 -0.131889689E-015
  0.105851792E+000  0.000000000E+000 -0.148595935E-015 -0.148595935E-015
  0.211706506E+000  0.000000000E+000 -0.166020357E-015 -0.166020357E-015
  0.423415933E+000  0.000000000E+000 -0.184873957E-015 -0.184873957E-015
  0.846834787E+000  0.000000000E+000 -0.205454722E-015 -0.205454722E-015
  0.169367250E+001  0.000000000E+000 -0.227911208E-015 -0.227911208E-015
  0.289393167E+001  0.000000000E+000 -0.245783063E-015 -0.245783063E-015
  0.445063180E+001  0.000000000E+000 -0.260906220E-015 -0.260906220E-015
  0.639010731E+001  0.000000000E+000 -0.274273797E-015 -0.274273797E-015
  0.876575611E+001  0.000000000E+000 -0.286494591E-015 -0.286494591E-015
  0.116581236E+002  0.000000000E+000 -0.297959493E-015 -0.297959493E-015
  0.151806649E+002  0.000000000E+000 -0.308939337E-015 -0.308939337E-015
  0.194898323E+002  0.000000000E+000 -0.319635073E-015 -0.319635073E-015
  0.247969402E+002  0.000000000E+000 -0.330199155E-015 -0.330199155E-015
  0.313994420E+002  0.000000000E+000 -0.340767877E-015 -0.340767877E-015
  0.395316316E+002  0.000000000E+000 -0.351276109E-015 -0.351276109E-015
  0.494966337E+002  0.000000000E+000 -0.361711027E-015 -0.361711027E-015
  0.615967736E+002  0.000000000E+000 -0.372031067E-015 -0.372031067E-015
  0.762328442E+002  0.000000000E+000 -0.382244496E-015 -0.382244496E-015
  0.938518939E+002  0.000000000E+000 -0.392351522E-015 -0.392351522E-015
  0.115018532E+003  0.000000000E+000 -0.402373092E-015 -0.402373092E-015
  0.140337656E+003  0.000000000E+000 -0.412309900E-015 -0.412309900E-015
  0.168607251E+003  0.000000000E+000 -0.421699181E-015 -0.421699181E-015
  0.199800655E+003  0.000000000E+000 -0.430569607E-015 -0.430569607E-015
  0.234146891E+003  0.000000000E+000 -0.439005086E-015 -0.439005086E-015
  0.271979222E+003  0.000000000E+000 -0.447086176E-015 -0.447086176E-015
  0.313972401E+003  0.000000000E+000 -0.454921188E-015 -0.454921188E-015
  0.361062193E+003  0.000000000E+000 -0.462614114E-015 -0.462614114E-015
  0.414620661E+003  0.000000000E+000 -0.470277110E-015 -0.470277110E-015
  0.476113514E+003  0.000000000E+000 -0.477980357E-015 -0.477980357E-015
  0.548253254E+003  0.000000000E+000 -0.485862323E-015 -0.485862323E-015
  0.634154781E+003  0.000000000E+000 -0.494012170E-015 -0.494012170E-015
  0.739002236E+003  0.000000000E+000 -0.502581255E-015 -0.502581255E-015
  0.870066657E+003  0.000000000E+000 -0.511715684E-015 -0.511715684E-015
  0.103791838E+004  0.000000000E+000 -0.521567165E-015 -0.521567165E-015
  0.125943183E+004  0.000000000E+000 -0.532336745E-015 -0.532336745E-015
  0.156104626E+004  0.000000000E+000 -0.546690157E-015 -0.546690157E-015
  0.198421156E+004  0.000000000E+000 -0.562555899E-015 -0.562555899E-015
  0.259195812E+004  0.000000000E+000 -0.582519987E-015 -0.582519987E-015
  0.349104276E+004  0.000000000E+000 -0.605524388E-015 -0.605524388E-015
  0.487205626E+004  0.000000000E+000 -0.636192833E-015 -0.636192833E-015
  0.709279411E+004  0.000000000E+000 -0.680912951E-015 -0.680912951E-015
  0.109047395E+005  0.000000000E+000 -0.745635212E-015 -0.745635212E-015
  0.178500716E+005  0.000000000E+000 -0.846715586E-015 -0.846715586E-015
  0.270456014E+005  0.000000000E+000 -0.980004744E-015 -0.980004744E-015
  0.380771961E+005  0.000000000E+000 -0.114690682E-014 -0.114690682E-014
  0.520036179E+005  0.000000000E+000 -0.135177295E-014 -0.135177295E-014
  0.718583752E+005  0.000000000E+000 -0.156082909E-014 -0.156082909E-014
  0.102625301E+006  0.000000000E+000 -0.167984996E-014 -0.167984996E-014
  0.164159152E+006  0.000000000E+000 -0.171153272E-014 -0.171153272E-014
  0.287226853E+006  0.000000000E+000 -0.171468239E-014 -0.171468239E-014
  0.533362257E+006  0.000000000E+000 -0.171483953E-014 -0.171483953E-014
  0.102563306E+007  0.000000000E+000 -0.171484380E-014 -0.171484380E-014
  0.201017468E+007  0.000000000E+000 -0.171484393E-014 -0.171484393E-014
  0.301017468E+007  0.000000000E+000 -0.171484394E-014 -0.171484394E-014
  0.401017468E+007  0.000000000E+000 -0.171484395E-014 -0.171484395E-014
  0.501017468E+007  0.000000000E+000 -0.171484396E-014 -0.171484396E-014
  0.601017468E+007  0.000000000E+000 -0.171484397E-014 -0.171484397E-014
  0.689308734E+007  0.000000000E+000 -0.171484397E-014 -0.171484397E-014
  0.777600000E+007  0.000000000E+000 -0.171484398E-014 -0.171484398E-014
  0.777600000E+007  0.000000000E+000 -0.171484398E-014 -0.171484398E-014
  0.777600000E+007  0.000000000E+000 -0.171484398E-014 -0.171484398E-014
  0.777600000E+007  0.000000000E+000 -0.171484398E-014 -0.171484398E-014
  0.777600001E+007  0.000000000E+000 -0.171484398E-014 -0.171484398E-014
  0.777600002E+007  0.000000000E+000 -0.171484398E-014 -0.171484398E-014
  0.777600003E+007  0.000000000E+000 -0.171484398E-014 -0.171484398E-014
  0.777600004E+007  0.000000000E+000 -0.171484398E-014 -0.171484398E-014
  0.777600005E+007  0.000000000E+000 -0.171484398E-014 -0.171484398E-014
  0.777600006E+007  0.000000000E+000 -0.171484398E-014 -0.171484398E-014
  0.777600008E+007  0.000000000E+000 -0.171484398E-014 -0.171484398E-014
  0.777600009E+007  0.000000000E+000 -0.171484398E-014 -0.171484398E-014
  0.777600010E+007  0.000000000E+000 -0.171484398E-014 -0.171484398E-014
  0.777600011E+007  0.000000000E+000 -0.171484398E-014 -0.171484398E-014
  0.777600012E+007  0.000000000E+000 -0.171484398E-014 -0.171484398E-014
  0.777600014E+007  0.000000000E+000 -0.171484398E-014 -0.171484398E-014
  0.777600015E+007  0.000000000E+000 -0.171484398E-014 -0.171484398E-014
  0.777600016E+007  0.000000000E+000 -0.171484398E-014 -0.171484398E-014
  0.777600018E+007  0.000000000E+000 -0.171484398E-014 -0.171484398E-014
  0.777600019E+007  0.000000000E+000 -0.171484398E-014 -0.171484398E-014
  0.777600021E+007  0.000000000E+000 -0.171484398E-014 -0.171484398E-014
  0.777600022E+007  0.000000000E+000 -0.171484398E-014 -0.171484398E-014
  0.777600023E+007  0.000000000E+000 -0.171484398E-014 -0.171484398E-014
  0.777600024E+007  0.000000000E+000 -0.171484398E-014 -0.171484398E-014
  0.777600026E+007  0.000000000E+000 -0.171484398E-014 -0.171484398E-014
  0.777600029E+007  0.000000000E+000 -0.171484398E-014 -0.171484398E-014
  0.777600034E+007  0.000000000E+000 -0.171484398E-014 -0.171484398E-014
  0.777600039E+007  0.000000000E+000 -0.171484398E-014 -0.171484398E-014
  0.777600044E+007  0.000000000E+000 -0.171484398E-014 -0.171484398E-014
  0.777600050E+007  0.000000000E+000 -0.171484398E-014 -0.171484398E-014
  0.777600057E+007  0.000000000E+000 -0.171484398E-014 -0.171484398E-014
  0.777600063E+007  0.000000000E+000 -0.171484398E-014 -0.171484398E-014
  0.777600069E+007  0.000000000E+000 -0.171484398E-014 -0.171484398E-014
  0.777600073E+007  0.000000000E+000 -0.171484398E-014 -0.171484398E-014
  0.777600078E+007  0.000000000E+000 -0.171484398E-014 -0.171484398E-014
  0.777600082E+007  0.000000000E+000 -0.171484398E-014 -0.171484398E-014
  0.777600086E+007  0.000000000E+000 -0.171484398E-014 -0.171484398E-014
  0.777600091E+007  0.000000000E+000 -0.171484398E-014 -0.171484398E-014
  0.777600095E+007  0.000000000E+000 -0.171484398E-014 -0.171484398E-014
  0.777600099E+007  0.000000000E+000 -0.171484398E-014 -0.171484398E-014
  0.777600104E+007  0.000000000E+000 -0.171484398E-014 -0.171484398E-014
  0.777600109E+007  0.000000000E+000 -0.171484398E-014 -0.171484398E-014
  0.777600114E+007  0.000000000E+000 -0.171484398E-014 -0.171484398E-014
  0.777600119E+007  0.000000000E+000 -0.171484398E-014 -0.171484398E-014
  0.777600126E+007  0.000000000E+000 -0.171484398E-014 -0.171484398E-014
  0.777600132E+007  0.000000000E+000 -0.171484398E-014 -0.171484398E-014
  0.777600140E+007  0.000000000E+000 -0.171484398E-014 -0.171484398E-014
  0.777600150E+007  0.000000000E+000 -0.171484398E-014 -0.171484398E-014
  0.777600159E+007  0.000000000E+000 -0.171484398E-014 -0.171484398E-014
  0.777600166E+007  0.000000000E+000 -0.171484398E-014 -0.171484398E-014
  0.777600174E+007  0.000000000E+000 -0.171484398E-014 -0.171484398E-014
  0.777600181E+007  0.000000000E+000 -0.171484398E-014 -0.171484398E-014
  0.777600189E+007  0.000000000E+000 -0.171484398E-014 -0.171484398E-014
  0.777600197E+007  0.000000000E+000 -0.171484398E-014 -0.171484398E-014
  0.777600206E+007  0.000000000E+000 -0.171484398E-014 -0.171484398E-014
  0.777600215E+007  0.000000000E+000 -0.171484398E-014 -0.171484398E-014
  0.777600226E+007  0.000000000E+000 -0.171484398E-014 -0.171484398E-014
  0.777600238E+007  0.000000000E+000 -0.171484398E-014 -0.171484398E-014
  0.777600251E+007  0.000000000E+000 -0.171484398E-014 -0.171484398E-014
  0.777600266E+007  0.000000000E+000 -0.171484398E-014 -0.171484398E-014
  0.777600284E+007  0.000000000E+000 -0.171484398E-014 -0.171484398E-014
  0.777600300E+007  0.000000000E+000 -0.171484398E-014 -0.171484398E-014
  0.777600312E+007  0.000000000E+000 -0.171484398E-014 -0.171484398E-014
  0.777600323E+007  0.000000000E+000 -0.171484398E-014 -0.171484398E-014
  0.777600333E+007  0.000000000E+000 -0.171484398E-014 -0.171484398E-014
  0.777600342E+007  0.000000000E+000 -0.171484398E-014 -0.171484398E-014
  0.777600351E+007  0.000000000E+000 -0.171484398E-014 -0.171484398E-014
  0.777600360E+007  0.000000000E+000 -0.171484398E-014 -0.171484398E-014
  0.777600369E+007  0.000000000E+000 -0.171484398E-014 -0.171484398E-014
  0.777600378E+007  0.000000000E+000 -0.171484398E-014 -0.171484398E-014
  0.777600388E+007  0.000000000E+000 -0.171484398E-014 -0.171484398E-014
  0.777600399E+007  0.000000000E+000 -0.171484398E-014 -0.171484398E-014
  0.777600411E+007  0.000000000E+000 -0.171484398E-014 -0.171484398E-014
  0.777600424E+007  0.000000000E+000 -0.171484398E-014 -0.171484398E-014
  0.777600439E+007  0.000000000E+000 -0.171484398E-014 -0.171484398E-014
  0.777600454E+007  0.000000000E+000 -0.171484398E-014 -0.171484398E-014
  0.777600466E+007  0.000000000E+000 -0.171484398E-014 -0.171484398E-014
  0.777600479E+007  0.000000000E+000 -0.171484398E-014 -0.171484398E-014
  0.777600491E+007  0.000000000E+000 -0.171484398E-014 -0.171484398E-014
  0.777600502E+007  0.000000000E+000 -0.171484398E-014 -0.171484398E-014
  0.777600514E+007  0.000000000E+000 -0.171484398E-014 -0.171484398E-014
  0.777600526E+007  0.000000000E+000 -0.171484398E-014 -0.171484398E-014
  0.777600539E+007  0.000000000E+000 -0.171484398E-014 -0.171484398E-014
  0.777600553E+007  0.000000000E+000 -0.171484398E-014 -0.171484398E-014
  0.777600568E+007  0.000000000E+000 -0.171484398E-014 -0.171484398E-014
  0.777600584E+007  0.000000000E+000 -0.171484398E-014 -0.171484398E-014
  0.777600604E+007  0.000000000E+000 -0.171484398E-014 -0.171484398E-014
  0.777600621E+007  0.000000000E+000 -0.171484398E-014 -0.171484398E-014
  0.777600637E+007  0.000000000E+000 -0.171484398E-014 -0.171484398E-014
  0.777600653E+007  0.000000000E+000 -0.171484398E-014 -0.171484398E-014
  0.777600670E+007  0.000000000E+000 -0.171484398E-014 -0.171484398E-014
  0.777600688E+007  0.000000000E+000 -0.171484398E-014 -0.171484398E-014
  0.777600707E+007  0.000000000E+000 -0.171484398E-014 -0.171484398E-014
  0.777600728E+007  0.000000000E+000 -0.171484398E-014 -0.171484398E-014
  0.777600746E+007  0.000000000E+000 -0.171484398E-014 -0.171484398E-014
  0.777600762E+007  0.000000000E+000 -0.171484398E-014 -0.171484398E-014
  0.777600777E+007  0.000000000E+000 -0.171484398E-014 -0.171484398E-014
  0.777600790E+007  0.000000000E+000 -0.171484398E-014 -0.171484398E-014
  0.777600804E+007  0.000000000E+000 -0.171484398E-014 -0.171484398E-014
  0.777600817E+007  0.000000000E+000 -0.171484398E-014 -0.171484398E-014
  0.777600831E+007  0.000000000E+000 -0.171484398E-014 -0.171484398E-014
  0.777600847E+007  0.000000000E+000 -0.171484398E-014 -0.171484398E-014
  0.777600863E+007  0.000000000E+000 -0.171484398E-014 -0.171484398E-014
  0.777600881E+007  0.000000000E+000 -0.171484398E-014 -0.171484398E-014
  0.777600902E+007  0.000000000E+000 -0.171484398E-014 -0.171484398E-014
  0.777600922E+007  0.000000000E+000 -0.171484398E-014 -0.171484398E-014
  0.777600941E+007  0.000000000E+000 -0.171484398E-014 -0.171484398E-014
  0.777600960E+007  0.000000000E+000 -0.171484398E-014 -0.171484398E-014
  0.777600978E+007  0.000000000E+000 -0.171484398E-014 -0.171484398E-014
  0.777600996E+007  0.000000000E+000 -0.171484398E-014 -0.171484398E-014
  0.777601014E+007  0.000000000E+000 -0.171484398E-014 -0.171484398E-014
  0.777601033E+007  0.000000000E+000 -0.171484398E-014 -0.171484398E-014
  0.777601052E+007  0.000000000E+000 -0.171484398E-014 -0.171484398E-014
  0.777601072E+007  0.000000000E+000 -0.171484398E-014 -0.171484398E-014
  0.777601095E+007  0.000000000E+000 -0.171484398E-014 -0.171484398E-014
  0.777601118E+007  0.000000000E+000 -0.171484398E-014 -0.171484398E-014
  0.777601141E+007  0.000000000E+000 -0.171484398E-014 -0.171484398E-014
  0.777601162E+007  0.000000000E+000 -0.171484398E-014 -0.171484398E-014
  0.777601182E+007  0.000000000E+000 -0.171484398E-014 -0.171484398E-014
  0.777601201E+007  0.000000000E+000 -0.171484398E-014 -0.171484398E-014
  0.777601221E+007  0.000000000E+000 -0.171484398E-014 -0.171484398E-014
  0.777601241E+007  0.000000000E+000 -0.171484398E-014 -0.171484398E-014
  0.777601264E+007  0.000000000E+000 -0.171484398E-014 -0.171484398E-014
  0.777601289E+007  0.000000000E+000 -0.171484398E-014 -0.171484398E-014
  0.777601319E+007  0.000000000E+000 -0.171484398E-014 -0.171484398E-014
  0.777601351E+007  0.000000000E+000 -0.171484398E-014 -0.171484398E-014
  0.777601381E+007  0.000000000E+000 -0.171484398E-014 -0.171484398E-014
  0.777601406E+007  0.000000000E+000 -0.171484398E-014 -0.171484398E-014
  0.777601429E+007  0.000000000E+000 -0.171484398E-014 -0.171484398E-014
  0.777601450E+007  0.000000000E+000 -0.171484398E-014 -0.171484398E-014
  0.777601469E+007  0.000000000E+000 -0.171484398E-014 -0.171484398E-014
  0.777601489E+007  0.000000000E+000 -0.171484398E-014 -0.171484398E-014
  0.777601510E+007  0.000000000E+000 -0.171484398E-014 -0.171484398E-014
  0.777601532E+007  0.000000000E+000 -0.171484398E-014 -0.171484398E-014
  0.777601556E+007  0.000000000E+000 -0.171484398E-014 -0.171484398E-014
  0.777601583E+007  0.000000000E+000 -0.171484398E-014 -0.171484398E-014
  0.777601613E+007  0.000000000E+000 -0.171484398E-014 -0.171484398E-014
  0.777601640E+007  0.000000000E+000 -0.171484398E-014 -0.171484398E-014
  0.777601666E+007  0.000000000E+000 -0.171484398E-014 -0.171484398E-014
  0.777601692E+007  0.000000000E+000 -0.171484398E-014 -0.171484398E-014
  0.777601718E+007  0.000000000E+000 -0.171484398E-014 -0.171484398E-014
  0.777601744E+007  0.000000000E+000 -0.171484398E-014 -0.171484398E-014
  0.777601771E+007  0.000000000E+000 -0.171484398E-014 -0.171484398E-014
  0.777601800E+007  0.000000000E+000 -0.171484398E-014 -0.171484398E-014
  0.777601831E+007  0.000000000E+000 -0.171484398E-014 -0.171484398E-014
  0.777601863E+007  0.000000000E+000 -0.171484398E-014 -0.171484398E-014
  0.777601892E+007  0.000000000E+000 -0.171484398E-014 -0.171484398E-014
  0.777601920E+007  0.000000000E+000 -0.171484398E-014 -0.171484398E-014
  0.777601947E+007  0.000000000E+000 -0.171484398E-014 -0.171484398E-014
  0.777601974E+007  0.000000000E+000 -0.171484399E-014 -0.171484399E-014
  0.777602001E+007  0.000000000E+000 -0.171484399E-014 -0.171484399E-014
  0.777602029E+007  0.000000000E+000 -0.171484399E-014 -0.171484399E-014
  0.777602058E+007  0.000000000E+000 -0.171484399E-014 -0.171484399E-014
  0.777602088E+007  0.000000000E+000 -0.171484399E-014 -0.171484399E-014
  0.777602121E+007  0.000000000E+000 -0.171484399E-014 -0.171484399E-014
  0.777602150E+007  0.000000000E+000 -0.171484399E-014 -0.171484399E-014
  0.777602179E+007  0.000000000E+000 -0.171484399E-014 -0.171484399E-014
  0.777602209E+007  0.000000000E+000 -0.171484399E-014 -0.171484399E-014
  0.777602240E+007  0.000000000E+000 -0.171484399E-014 -0.171484399E-014
  0.777602273E+007  0.000000000E+000 -0.171484399E-014 -0.171484399E-014
  0.777602310E+007  0.000000000E+000 -0.171484399E-014 -0.171484399E-014
  0.777602348E+007  0.000000000E+000 -0.171484399E-014 -0.171484399E-014
  0.777602380E+007  0.000000000E+000 -0.171484399E-014 -0.171484399E-014
  0.777602410E+007  0.000000000E+000 -0.171484399E-014 -0.171484399E-014
  0.777602437E+007  0.000000000E+000 -0.171484399E-014 -0.171484399E-014
  0.777602466E+007  0.000000000E+000 -0.171484399E-014 -0.171484399E-014
  0.777602497E+007  0.000000000E+000 -0.171484399E-014 -0.171484399E-014
  0.777602530E+007  0.000000000E+000 -0.171484399E-014 -0.171484399E-014
  0.777602568E+007  0.000000000E+000 -0.171484399E-014 -0.171484399E-014
  0.777602608E+007  0.000000000E+000 -0.171484399E-014 -0.171484399E-014
  0.777602645E+007  0.000000000E+000 -0.171484399E-014 -0.171484399E-014
  0.777602681E+007  0.000000000E+000 -0.171484399E-014 -0.171484399E-014
  0.777602718E+007  0.000000000E+000 -0.171484399E-014 -0.171484399E-014
  0.777602755E+007  0.000000000E+000 -0.171484399E-014 -0.171484399E-014
  0.777602795E+007  0.000000000E+000 -0.171484399E-014 -0.171484399E-014
  0.777602836E+007  0.000000000E+000 -0.171484399E-014 -0.171484399E-014
  0.777602881E+007  0.000000000E+000 -0.171484399E-014 -0.171484399E-014
  0.777602922E+007  0.000000000E+000 -0.171484399E-014 -0.171484399E-014
  0.777602961E+007  0.000000000E+000 -0.171484399E-014 -0.171484399E-014
  0.777603000E+007  0.000000000E+000 -0.171484399E-014 -0.171484399E-014
  0.777603039E+007  0.000000000E+000 -0.171484399E-014 -0.171484399E-014
  0.777603078E+007  0.000000000E+000 -0.171484399E-014 -0.171484399E-014
  0.777603119E+007  0.000000000E+000 -0.171484399E-014 -0.171484399E-014
  0.777603163E+007  0.000000000E+000 -0.171484399E-014 -0.171484399E-014
  0.777603205E+007  0.000000000E+000 -0.171484399E-014 -0.171484399E-014
  0.777603244E+007  0.000000000E+000 -0.171484399E-014 -0.171484399E-014
  0.777603281E+007  0.000000000E+000 -0.171484399E-014 -0.171484399E-014
  0.777603320E+007  0.000000000E+000 -0.171484399E-014 -0.171484399E-014
  0.777603358E+007  0.000000000E+000 -0.171484399E-014 -0.171484399E-014
  0.777603397E+007  0.000000000E+000 -0.171484399E-014 -0.171484399E-014
  0.777603441E+007  0.000000000E+000 -0.171484399E-014 -0.171484399E-014
  0.777603485E+007  0.000000000E+000 -0.171484399E-014 -0.171484399E-014
  0.777603527E+007  0.000000000E+000 -0.171484399E-014 -0.171484399E-014
  0.777603570E+007  0.000000000E+000 -0.171484399E-014 -0.171484399E-014
  0.777603614E+007  0.000000000E+000 -0.171484399E-014 -0.171484399E-014
  0.777603661E+007  0.000000000E+000 -0.171484399E-014 -0.171484399E-014
  0.777603709E+007  0.000000000E+000 -0.171484399E-014 -0.171484399E-014
  0.777603753E+007  0.000000000E+000 -0.171484399E-014 -0.171484399E-014
  0.777603796E+007  0.000000000E+000 -0.171484399E-014 -0.171484399E-014
  0.777603837E+007  0.000000000E+000 -0.171484399E-014 -0.171484399E-014
  0.777603883E+007  0.000000000E+000 -0.171484399E-014 -0.171484399E-014
  0.777603934E+007  0.000000000E+000 -0.171484399E-014 -0.171484399E-014
  0.777603989E+007  0.000000000E+000 -0.171484399E-014 -0.171484399E-014
  0.777604042E+007  0.000000000E+000 -0.171484399E-014 -0.171484399E-014
  0.777604095E+007  0.000000000E+000 -0.171484399E-014 -0.171484399E-014
  0.777604148E+007  0.000000000E+000 -0.171484399E-014 -0.171484399E-014
  0.777604205E+007  0.000000000E+000 -0.171484399E-014 -0.171484399E-014
  0.777604266E+007  0.000000000E+000 -0.171484399E-014 -0.171484399E-014
  0.777604326E+007  0.000000000E+000 -0.171484399E-014 -0.171484399E-014
  0.777604383E+007  0.000000000E+000 -0.171484399E-014 -0.171484399E-014
  0.777604440E+007  0.000000000E+000 -0.171484399E-014 -0.171484399E-014
  0.777604497E+007  0.000000000E+000 -0.171484399E-014 -0.171484399E-014
  0.777604557E+007  0.000000000E+000 -0.171484399E-014 -0.171484399E-014
  0.777604620E+007  0.000000000E+000 -0.171484399E-014 -0.171484399E-014
  0.777604679E+007  0.000000000E+000 -0.171484399E-014 -0.171484399E-014
  0.777604735E+007  0.000000000E+000 -0.171484399E-014 -0.171484399E-014
  0.777604791E+007  0.000000000E+000 -0.171484399E-014 -0.171484399E-014
  0.777604848E+007  0.000000000E+000 -0.171484399E-014 -0.171484399E-014
  0.777604907E+007  0.000000000E+000 -0.171484399E-014 -0.171484399E-014
  0.777604968E+007  0.000000000E+000 -0.171484399E-014 -0.171484399E-014
  0.777605025E+007  0.000000000E+000 -0.171484399E-014 -0.171484399E-014
  0.777605080E+007  0.000000000E+000 -0.171484399E-014 -0.171484399E-014
  0.777605135E+007  0.000000000E+000 -0.171484399E-014 -0.171484399E-014
  0.777605191E+007  0.000000000E+000 -0.171484399E-014 -0.171484399E-014
  0.777605249E+007  0.000000000E+000 -0.171484399E-014 -0.171484399E-014
  0.777605311E+007  0.000000000E+000 -0.171484399E-014 -0.171484399E-014
  0.777605369E+007  0.000000000E+000 -0.171484399E-014 -0.171484399E-014
  0.777605428E+007  0.000000000E+000 -0.171484399E-014 -0.171484399E-014
  0.777605487E+007  0.000000000E+000 -0.171484399E-014 -0.171484399E-014
  0.777605551E+007  0.000000000E+000 -0.171484399E-014 -0.171484399E-014
  0.777605621E+007  0.000000000E+000 -0.171484399E-014 -0.171484399E-014
  0.777605687E+007  0.000000000E+000 -0.171484399E-014 -0.171484399E-014
  0.777605753E+007  0.000000000E+000 -0.171484399E-014 -0.171484399E-014
  0.777605819E+007  0.000000000E+000 -0.171484399E-014 -0.171484399E-014
  0.777605889E+007  0.000000000E+000 -0.171484399E-014 -0.171484399E-014
  0.777605962E+007  0.000000000E+000 -0.171484399E-014 -0.171484399E-014
  0.777606040E+007  0.000000000E+000 -0.171484399E-014 -0.171484399E-014
  0.777606123E+007  0.000000000E+000 -0.171484399E-014 -0.171484399E-014
  0.777606210E+007  0.000000000E+000 -0.171484399E-014 -0.171484399E-014
  0.777606294E+007  0.000000000E+000 -0.171484399E-014 -0.171484399E-014
  0.777606379E+007  0.000000000E+000 -0.171484399E-014 -0.171484399E-014
  0.777606465E+007  0.000000000E+000 -0.171484399E-014 -0.171484399E-014
  0.777606556E+007  0.000000000E+000 -0.171484399E-014 -0.171484399E-014
  0.777606649E+007  0.000000000E+000 -0.171484399E-014 -0.171484399E-014
  0.777606738E+007  0.000000000E+000 -0.171484399E-014 -0.171484399E-014
  0.777606827E+007  0.000000000E+000 -0.171484399E-014 -0.171484399E-014
  0.777606918E+007  0.000000000E+000 -0.171484399E-014 -0.171484399E-014
  0.777607011E+007  0.000000000E+000 -0.171484399E-014 -0.171484399E-014
  0.777607099E+007  0.000000000E+000 -0.171484399E-014 -0.171484399E-014
  0.777607185E+007  0.000000000E+000 -0.171484399E-014 -0.171484399E-014
  0.777607273E+007  0.000000000E+000 -0.171484399E-014 -0.171484399E-014
  0.777607365E+007  0.000000000E+000 -0.171484399E-014 -0.171484399E-014
  0.777607452E+007  0.000000000E+000 -0.171484399E-014 -0.171484399E-014
  0.777607536E+007  0.000000000E+000 -0.171484399E-014 -0.171484399E-014
  0.777607621E+007  0.000000000E+000 -0.171484399E-014 -0.171484399E-014
  0.777607708E+007  0.000000000E+000 -0.171484399E-014 -0.171484399E-014
  0.777607801E+007  0.000000000E+000 -0.171484399E-014 -0.171484399E-014
  0.777607888E+007  0.000000000E+000 -0.171484399E-014 -0.171484399E-014
  0.777607971E+007  0.000000000E+000 -0.171484399E-014 -0.171484399E-014
  0.777608056E+007  0.000000000E+000 -0.171484399E-014 -0.171484399E-014
  0.777608148E+007  0.000000000E+000 -0.171484399E-014 -0.171484399E-014
  0.777608242E+007  0.000000000E+000 -0.171484399E-014 -0.171484399E-014
  0.777608332E+007  0.000000000E+000 -0.171484399E-014 -0.171484399E-014
  0.777608425E+007  0.000000000E+000 -0.171484399E-014 -0.171484399E-014
  0.777608521E+007  0.000000000E+000 -0.171484399E-014 -0.171484399E-014
  0.777608627E+007  0.000000000E+000 -0.171484399E-014 -0.171484399E-014
  0.777608741E+007  0.000000000E+000 -0.171484399E-014 -0.171484399E-014
  0.777608841E+007  0.000000000E+000 -0.171484399E-014 -0.171484399E-014
  0.777608943E+007  0.000000000E+000 -0.171484399E-014 -0.171484399E-014
  0.777609050E+007  0.000000000E+000 -0.171484399E-014 -0.171484399E-014
  0.777609165E+007  0.000000000E+000 -0.171484399E-014 -0.171484399E-014
  0.777609286E+007  0.000000000E+000 -0.171484398E-014 -0.171484398E-014
  0.777609401E+007  0.000000000E+000 -0.171484398E-014 -0.171484398E-014
  0.777609517E+007  0.000000000E+000 -0.171484398E-014 -0.171484398E-014
  0.777609637E+007  0.000000000E+000 -0.171484398E-014 -0.171484398E-014
  0.777609761E+007  0.000000000E+000 -0.171484398E-014 -0.171484398E-014
  0.777609887E+007  0.000000000E+000 -0.171484398E-014 -0.171484398E-014
  0.777610014E+007  0.000000000E+000 -0.171484398E-014 -0.171484398E-014
  0.777610142E+007  0.000000000E+000 -0.171484397E-014 -0.171484397E-014
  0.777610272E+007  0.000000000E+000 -0.171484397E-014 -0.171484397E-014
  0.777610403E+007  0.000000000E+000 -0.171484397E-014 -0.171484397E-014
  0.777610535E+007  0.000000000E+000 -0.171484396E-014 -0.171484396E-014
  0.777610668E+007  0.000000000E+000 -0.171484396E-014 -0.171484396E-014
  0.777610801E+007  0.000000000E+000 -0.171484395E-014 -0.171484395E-014
  0.777610938E+007  0.000000000E+000 -0.171484395E-014 -0.171484395E-014
  0.777611076E+007  0.000000000E+000 -0.171484394E-014 -0.171484394E-014
  0.777611212E+007  0.000000000E+000 -0.171484393E-014 -0.171484393E-014
  0.777611349E+007  0.000000000E+000 -0.171484392E-014 -0.171484392E-014
  0.777611488E+007  0.000000000E+000 -0.171484391E-014 -0.171484391E-014
  0.777611627E+007  0.000000000E+000 -0.171484390E-014 -0.171484390E-014
  0.777611763E+007  0.000000000E+000 -0.171484388E-014 -0.171484388E-014
  0.777611901E+007  0.000000000E+000 -0.171484387E-014 -0.171484387E-014
  0.777612048E+007  0.000000000E+000 -0.171484385E-014 -0.171484385E-014
  0.777612185E+007  0.000000000E+000 -0.171484383E-014 -0.171484383E-014
  0.777612322E+007  0.000000000E+000 -0.171484381E-014 -0.171484381E-014
  0.777612463E+007  0.000000000E+000 -0.171484379E-014 -0.171484379E-014
  0.777612608E+007  0.000000000E+000 -0.171484376E-014 -0.171484376E-014
  0.777612753E+007  0.000000000E+000 -0.171484373E-014 -0.171484373E-014
  0.777612897E+007  0.000000000E+000 -0.171484369E-014 -0.171484369E-014
  0.777613042E+007  0.000000000E+000 -0.171484365E-014 -0.171484365E-014
  0.777613189E+007  0.000000000E+000 -0.171484361E-014 -0.171484361E-014
  0.777613336E+007  0.000000000E+000 -0.171484356E-014 -0.171484356E-014
  0.777613484E+007  0.000000000E+000 -0.171484351E-014 -0.171484351E-014
  0.777613634E+007  0.000000000E+000 -0.171484345E-014 -0.171484345E-014
  0.777613783E+007  0.000000000E+000 -0.171484338E-014 -0.171484338E-014
  0.777613932E+007  0.000000000E+000 -0.171484331E-014 -0.171484331E-014
  0.777614084E+007  0.000000000E+000 -0.171484323E-014 -0.171484323E-014
  0.777614234E+007  0.000000000E+000 -0.171484314E-014 -0.171484314E-014
  0.777614387E+007  0.000000000E+000 -0.171484305E-014 -0.171484305E-014
  0.777614540E+007  0.000000000E+000 -0.171484294E-014 -0.171484294E-014
  0.777614693E+007  0.000000000E+000 -0.171484282E-014 -0.171484282E-014
  0.777614846E+007  0.000000000E+000 -0.171484270E-014 -0.171484270E-014
  0.777615000E+007  0.000000000E+000 -0.171484256E-014 -0.171484256E-014
  0.777615154E+007  0.000000000E+000 -0.171484240E-014 -0.171484240E-014
  0.777615312E+007  0.000000000E+000 -0.171484223E-014 -0.171484223E-014
  0.777615467E+007  0.000000000E+000 -0.171484205E-014 -0.171484205E-014
  0.777615623E+007  0.000000000E+000 -0.171484186E-014 -0.171484186E-014
  0.777615780E+007  0.000000000E+000 -0.171484164E-014 -0.171484164E-014
  0.777615937E+007  0.000000000E+000 -0.171484141E-014 -0.171484141E-014
  0.777616095E+007  0.000000000E+000 -0.171484115E-014 -0.171484115E-014
  0.777616255E+007  0.000000000E+000 -0.171484088E-014 -0.171484088E-014
  0.777616413E+007  0.000000000E+000 -0.171484058E-014 -0.171484058E-014
  0.777616572E+007  0.000000000E+000 -0.171484026E-014 -0.171484026E-014
  0.777616733E+007  0.000000000E+000 -0.171483992E-014 -0.171483992E-014
  0.777616892E+007  0.000000000E+000 -0.171483955E-014 -0.171483955E-014
  0.777617054E+007  0.000000000E+000 -0.171483914E-014 -0.171483914E-014
  0.777617215E+007  0.000000000E+000 -0.171483871E-014 -0.171483871E-014
  0.777617376E+007  0.000000000E+000 -0.171483825E-014 -0.171483825E-014
  0.777617538E+007  0.000000000E+000 -0.171483775E-014 -0.171483775E-014
  0.777617700E+007  0.000000000E+000 -0.171483722E-014 -0.171483722E-014
  0.777617863E+007  0.000000000E+000 -0.171483665E-014 -0.171483665E-014
  0.777618028E+007  0.000000000E+000 -0.171483604E-014 -0.171483604E-014
  0.777618190E+007  0.000000000E+000 -0.171483539E-014 -0.171483539E-014