Title = "_x4.8_ Hydrograph"
variables="Time","Surface","Porous media","Total"
zone t="_x4.8_"
  0.100000000E-004  0.000000000E+000 -0.400011078E-024 -0.400011078E-024
  0.229217180E-004  0.000000000E+000 -0.400011145E-024 -0.400011145E-024
  0.487651539E-004  0.000000000E+000 -0.400011169E-024 -0.400011169E-024
  0.100452026E-003  0.000000000E+000 -0.400011230E-024 -0.400011230E-024
  0.203825770E-003  0.000000000E+000 -0.405270344E-024 -0.405270344E-024
  0.410573257E-003  0.000000000E+000 -0.167314546E-022 -0.167314546E-022
  0.824068232E-003  0.000000000E+000 -0.389632940E-020 -0.389632940E-020
  0.165105818E-002  0.000000000E+000 -0.333075352E-018 -0.333075352E-018
  0.330503808E-002  0.000000000E+000 -0.372946761E-017 -0.372946761E-017
  0.661299788E-002  0.000000000E+000 -0.306208541E-016 -0.306208541E-016
  0.132289175E-001  0.000000000E+000 -0.841936369E-016 -0.841936369E-016
  0.264607567E-001  0.000000000E+000 -0.111341118E-015 -0.111341118E-015
  0.529244351E-001  0.000000000E+000 -0.131775606E-015 -0.131775606E-015
  0.105851792E+000  0.000000000E+000 -0.148498300E-015 -0.148498300E-015
  0.211706506E+000  0.000000000E+000 -0.165924648E-015 -0.165924648E-015
  0.423415933E+000  0.000000000E+000 -0.184772823E-015 -0.184772823E-015
  0.846834787E+000  0.000000000E+000 -0.205345168E-015 -0.205345168E-015
  0.169367250E+001  0.000000000E+000 -0.227794811E-015 -0.227794811E-015
  0.289393167E+001  0.000000000E+000 -0.245661736E-015 -0.245661736E-015
  0.445063180E+001  0.000000000E+000 -0.260782502E-015 -0.260782502E-015
  0.639010731E+001  0.000000000E+000 -0.274149912E-015 -0.274149912E-015
  0.876575611E+001  0.000000000E+000 -0.286372455E-015 -0.286372455E-015
  0.116581236E+002  0.000000000E+000 -0.297840768E-015 -0.297840768E-015
  0.151806649E+002  0.000000000E+000 -0.308825464E-015 -0.308825464E-015
  0.194898323E+002  0.000000000E+000 -0.319527281E-015 -0.319527281E-015
  0.247969402E+002  0.000000000E+000 -0.330098449E-015 -0.330098449E-015
  0.313994420E+002  0.000000000E+000 -0.340675030E-015 -0.340675030E-015
  0.395316316E+002  0.000000000E+000 -0.351191419E-015 -0.351191419E-015
  0.494966337E+002  0.000000000E+000 -0.361634438E-015 -0.361634438E-015
  0.615967736E+002  0.000000000E+000 -0.371962227E-015 -0.371962227E-015
  0.762328442E+002  0.000000000E+000 -0.382182901E-015 -0.382182901E-015
  0.938518939E+002  0.000000000E+000 -0.392296583E-015 -0.392296583E-015
  0.115018532E+003  0.000000000E+000 -0.402324201E-015 -0.402324201E-015
  0.140337656E+003  0.000000000E+000 -0.412266455E-015 -0.412266455E-015
  0.168607251E+003  0.000000000E+000 -0.421660419E-015 -0.421660419E-015
  0.199800655E+003  0.000000000E+000 -0.430534880E-015 -0.430534880E-015
  0.234146891E+003  0.000000000E+000 -0.438973862E-015 -0.438973862E-015
  0.271979222E+003  0.000000000E+000 -0.447058013E-015 -0.447058013E-015
  0.313972401E+003  0.000000000E+000 -0.454895731E-015 -0.454895731E-015
  0.361062193E+003  0.000000000E+000 -0.462591075E-015 -0.462591075E-015
  0.414620661E+003  0.000000000E+000 -0.470256255E-015 -0.470256255E-015
  0.476113514E+003  0.000000000E+000 -0.477961486E-015 -0.477961486E-015
  0.548253254E+003  0.000000000E+000 -0.485845276E-015 -0.485845276E-015
  0.634154781E+003  0.000000000E+000 -0.493996810E-015 -0.493996810E-015
  0.739002236E+003  0.000000000E+000 -0.502567464E-015 -0.502567464E-015
  0.870066657E+003  0.000000000E+000 -0.511703361E-015 -0.511703361E-015
  0.103791838E+004  0.000000000E+000 -0.521556212E-015 -0.521556212E-015
  0.125943183E+004  0.000000000E+000 -0.532327071E-015 -0.532327071E-015
  0.156104626E+004  0.000000000E+000 -0.546680807E-015 -0.546680807E-015
  0.198421156E+004  0.000000000E+000 -0.562547651E-015 -0.562547651E-015
  0.259195812E+004  0.000000000E+000 -0.582512251E-015 -0.582512251E-015
  0.349104276E+004  0.000000000E+000 -0.605517641E-015 -0.605517641E-015
  0.487205626E+004  0.000000000E+000 -0.636186805E-015 -0.636186805E-015
  0.709279411E+004  0.000000000E+000 -0.680907158E-015 -0.680907158E-015
  0.109047395E+005  0.000000000E+000 -0.745613110E-015 -0.745613110E-015
  0.178500716E+005  0.000000000E+000 -0.846684503E-015 -0.846684503E-015
  0.270456014E+005  0.000000000E+000 -0.979975523E-015 -0.979975523E-015
  0.380771961E+005  0.000000000E+000 -0.114674646E-014 -0.114674646E-014
  0.520036179E+005  0.000000000E+000 -0.134797283E-014 -0.134797283E-014
  0.718583752E+005  0.000000000E+000 -0.154151638E-014 -0.154151638E-014
  0.102625301E+006  0.000000000E+000 -0.164255479E-014 -0.164255479E-014
  0.164159152E+006  0.000000000E+000 -0.166791693E-014 -0.166791693E-014
  0.287226853E+006  0.000000000E+000 -0.167033083E-014 -0.167033083E-014
  0.533362257E+006  0.000000000E+000 -0.167044375E-014 -0.167044375E-014
  0.102563306E+007  0.000000000E+000 -0.167044657E-014 -0.167044657E-014
  0.201017468E+007  0.000000000E+000 -0.167044653E-014 -0.167044653E-014
  0.301017468E+007  0.000000000E+000 -0.167044653E-014 -0.167044653E-014
  0.401017468E+007  0.000000000E+000 -0.167044652E-014 -0.167044652E-014
  0.501017468E+007  0.000000000E+000 -0.167044652E-014 -0.167044652E-014
  0.601017468E+007  0.000000000E+000 -0.167044651E-014 -0.167044651E-014
  0.689308734E+007  0.000000000E+000 -0.167044651E-014 -0.167044651E-014
  0.777600000E+007  0.000000000E+000 -0.167044650E-014 -0.167044650E-014
  0.777600000E+007  0.000000000E+000 -0.167044650E-014 -0.167044650E-014
  0.777600000E+007  0.000000000E+000 -0.167044650E-014 -0.167044650E-014
  0.777600000E+007  0.000000000E+000 -0.167044650E-014 -0.167044650E-014
  0.777600001E+007  0.000000000E+000 -0.167044650E-014 -0.167044650E-014
  0.777600002E+007  0.000000000E+000 -0.167044650E-014 -0.167044650E-014
  0.777600003E+007  0.000000000E+000 -0.167044650E-014 -0.167044650E-014
  0.777600004E+007  0.000000000E+000 -0.167044650E-014 -0.167044650E-014
  0.777600005E+007  0.000000000E+000 -0.167044650E-014 -0.167044650E-014
  0.777600006E+007  0.000000000E+000 -0.167044650E-014 -0.167044650E-014
  0.777600008E+007  0.000000000E+000 -0.167044650E-014 -0.167044650E-014
  0.777600009E+007  0.000000000E+000 -0.167044650E-014 -0.167044650E-014
  0.777600010E+007  0.000000000E+000 -0.167044650E-014 -0.167044650E-014
  0.777600011E+007  0.000000000E+000 -0.167044650E-014 -0.167044650E-014
  0.777600012E+007  0.000000000E+000 -0.167044650E-014 -0.167044650E-014
  0.777600014E+007  0.000000000E+000 -0.167044650E-014 -0.167044650E-014
  0.777600015E+007  0.000000000E+000 -0.167044650E-014 -0.167044650E-014
  0.777600016E+007  0.000000000E+000 -0.167044650E-014 -0.167044650E-014
  0.777600018E+007  0.000000000E+000 -0.167044650E-014 -0.167044650E-014
  0.777600019E+007  0.000000000E+000 -0.167044650E-014 -0.167044650E-014
  0.777600021E+007  0.000000000E+000 -0.167044650E-014 -0.167044650E-014
  0.777600022E+007  0.000000000E+000 -0.167044650E-014 -0.167044650E-014
  0.777600023E+007  0.000000000E+000 -0.167044650E-014 -0.167044650E-014
  0.777600024E+007  0.000000000E+000 -0.167044650E-014 -0.167044650E-014
  0.777600026E+007  0.000000000E+000 -0.167044650E-014 -0.167044650E-014
  0.777600029E+007  0.000000000E+000 -0.167044650E-014 -0.167044650E-014
  0.777600034E+007  0.000000000E+000 -0.167044650E-014 -0.167044650E-014
  0.777600039E+007  0.000000000E+000 -0.167044650E-014 -0.167044650E-014
  0.777600044E+007  0.000000000E+000 -0.167044650E-014 -0.167044650E-014
  0.777600050E+007  0.000000000E+000 -0.167044650E-014 -0.167044650E-014
  0.777600057E+007  0.000000000E+000 -0.167044650E-014 -0.167044650E-014
  0.777600063E+007  0.000000000E+000 -0.167044650E-014 -0.167044650E-014
  0.777600069E+007  0.000000000E+000 -0.167044650E-014 -0.167044650E-014
  0.777600073E+007  0.000000000E+000 -0.167044650E-014 -0.167044650E-014
  0.777600078E+007  0.000000000E+000 -0.167044650E-014 -0.167044650E-014
  0.777600082E+007  0.000000000E+000 -0.167044650E-014 -0.167044650E-014
  0.777600086E+007  0.000000000E+000 -0.167044650E-014 -0.167044650E-014
  0.777600091E+007  0.000000000E+000 -0.167044650E-014 -0.167044650E-014
  0.777600095E+007  0.000000000E+000 -0.167044650E-014 -0.167044650E-014
  0.777600099E+007  0.000000000E+000 -0.167044650E-014 -0.167044650E-014
  0.777600104E+007  0.000000000E+000 -0.167044650E-014 -0.167044650E-014
  0.777600109E+007  0.000000000E+000 -0.167044650E-014 -0.167044650E-014
  0.777600114E+007  0.000000000E+000 -0.167044650E-014 -0.167044650E-014
  0.777600119E+007  0.000000000E+000 -0.167044650E-014 -0.167044650E-014
  0.777600126E+007  0.000000000E+000 -0.167044650E-014 -0.167044650E-014
  0.777600132E+007  0.000000000E+000 -0.167044650E-014 -0.167044650E-014
  0.777600140E+007  0.000000000E+000 -0.167044650E-014 -0.167044650E-014
  0.777600150E+007  0.000000000E+000 -0.167044650E-014 -0.167044650E-014
  0.777600159E+007  0.000000000E+000 -0.167044650E-014 -0.167044650E-014
  0.777600166E+007  0.000000000E+000 -0.167044650E-014 -0.167044650E-014
  0.777600174E+007  0.000000000E+000 -0.167044650E-014 -0.167044650E-014
  0.777600181E+007  0.000000000E+000 -0.167044650E-014 -0.167044650E-014
  0.777600189E+007  0.000000000E+000 -0.167044650E-014 -0.167044650E-014
  0.777600197E+007  0.000000000E+000 -0.167044650E-014 -0.167044650E-014
  0.777600206E+007  0.000000000E+000 -0.167044650E-014 -0.167044650E-014
  0.777600215E+007  0.000000000E+000 -0.167044650E-014 -0.167044650E-014
  0.777600226E+007  0.000000000E+000 -0.167044650E-014 -0.167044650E-014
  0.777600238E+007  0.000000000E+000 -0.167044650E-014 -0.167044650E-014
  0.777600251E+007  0.000000000E+000 -0.167044650E-014 -0.167044650E-014
  0.777600266E+007  0.000000000E+000 -0.167044650E-014 -0.167044650E-014
  0.777600284E+007  0.000000000E+000 -0.167044650E-014 -0.167044650E-014
  0.777600300E+007  0.000000000E+000 -0.167044650E-014 -0.167044650E-014
  0.777600312E+007  0.000000000E+000 -0.167044650E-014 -0.167044650E-014
  0.777600323E+007  0.000000000E+000 -0.167044650E-014 -0.167044650E-014
  0.777600333E+007  0.000000000E+000 -0.167044650E-014 -0.167044650E-014
  0.777600342E+007  0.000000000E+000 -0.167044650E-014 -0.167044650E-014
  0.777600351E+007  0.000000000E+000 -0.167044650E-014 -0.167044650E-014
  0.777600360E+007  0.000000000E+000 -0.167044650E-014 -0.167044650E-014
  0.777600369E+007  0.000000000E+000 -0.167044650E-014 -0.167044650E-014
  0.777600378E+007  0.000000000E+000 -0.167044650E-014 -0.167044650E-014
  0.777600388E+007  0.000000000E+000 -0.167044650E-014 -0.167044650E-014
  0.777600399E+007  0.000000000E+000 -0.167044650E-014 -0.167044650E-014
  0.777600411E+007  0.000000000E+000 -0.167044650E-014 -0.167044650E-014
  0.777600424E+007  0.000000000E+000 -0.167044650E-014 -0.167044650E-014
  0.777600439E+007  0.000000000E+000 -0.167044650E-014 -0.167044650E-014
  0.777600454E+007  0.000000000E+000 -0.167044650E-014 -0.167044650E-014
  0.777600466E+007  0.000000000E+000 -0.167044650E-014 -0.167044650E-014
  0.777600479E+007  0.000000000E+000 -0.167044650E-014 -0.167044650E-014
  0.777600491E+007  0.000000000E+000 -0.167044650E-014 -0.167044650E-014
  0.777600502E+007  0.000000000E+000 -0.167044650E-014 -0.167044650E-014
  0.777600514E+007  0.000000000E+000 -0.167044650E-014 -0.167044650E-014
  0.777600526E+007  0.000000000E+000 -0.167044650E-014 -0.167044650E-014
  0.777600539E+007  0.000000000E+000 -0.167044650E-014 -0.167044650E-014
  0.777600553E+007  0.000000000E+000 -0.167044650E-014 -0.167044650E-014
  0.777600568E+007  0.000000000E+000 -0.167044650E-014 -0.167044650E-014
  0.777600584E+007  0.000000000E+000 -0.167044650E-014 -0.167044650E-014
  0.777600604E+007  0.000000000E+000 -0.167044650E-014 -0.167044650E-014
  0.777600621E+007  0.000000000E+000 -0.167044650E-014 -0.167044650E-014
  0.777600637E+007  0.000000000E+000 -0.167044650E-014 -0.167044650E-014
  0.777600653E+007  0.000000000E+000 -0.167044650E-014 -0.167044650E-014
  0.777600670E+007  0.000000000E+000 -0.167044650E-014 -0.167044650E-014
  0.777600688E+007  0.000000000E+000 -0.167044650E-014 -0.167044650E-014
  0.777600707E+007  0.000000000E+000 -0.167044650E-014 -0.167044650E-014
  0.777600728E+007  0.000000000E+000 -0.167044650E-014 -0.167044650E-014
  0.777600746E+007  0.000000000E+000 -0.167044650E-014 -0.167044650E-014
  0.777600762E+007  0.000000000E+000 -0.167044650E-014 -0.167044650E-014
  0.777600777E+007  0.000000000E+000 -0.167044650E-014 -0.167044650E-014
  0.777600790E+007  0.000000000E+000 -0.167044650E-014 -0.167044650E-014
  0.777600804E+007  0.000000000E+000 -0.167044650E-014 -0.167044650E-014
  0.777600817E+007  0.000000000E+000 -0.167044650E-014 -0.167044650E-014
  0.777600831E+007  0.000000000E+000 -0.167044650E-014 -0.167044650E-014
  0.777600847E+007  0.000000000E+000 -0.167044650E-014 -0.167044650E-014
  0.777600863E+007  0.000000000E+000 -0.167044650E-014 -0.167044650E-014
  0.777600881E+007  0.000000000E+000 -0.167044650E-014 -0.167044650E-014
  0.777600902E+007  0.000000000E+000 -0.167044650E-014 -0.167044650E-014
  0.777600922E+007  0.000000000E+000 -0.167044650E-014 -0.167044650E-014
  0.777600941E+007  0.000000000E+000 -0.167044650E-014 -0.167044650E-014
  0.777600960E+007  0.000000000E+000 -0.167044650E-014 -0.167044650E-014
  0.777600978E+007  0.000000000E+000 -0.167044650E-014 -0.167044650E-014
  0.777600996E+007  0.000000000E+000 -0.167044650E-014 -0.167044650E-014
  0.777601014E+007  0.000000000E+000 -0.167044650E-014 -0.167044650E-014
  0.777601033E+007  0.000000000E+000 -0.167044650E-014 -0.167044650E-014
  0.777601052E+007  0.000000000E+000 -0.167044650E-014 -0.167044650E-014
  0.777601072E+007  0.000000000E+000 -0.167044650E-014 -0.167044650E-014
  0.777601095E+007  0.000000000E+000 -0.167044650E-014 -0.167044650E-014
  0.777601118E+007  0.000000000E+000 -0.167044650E-014 -0.167044650E-014
  0.777601141E+007  0.000000000E+000 -0.167044650E-014 -0.167044650E-014
  0.777601162E+007  0.000000000E+000 -0.167044650E-014 -0.167044650E-014
  0.777601182E+007  0.000000000E+000 -0.167044650E-014 -0.167044650E-014
  0.777601201E+007  0.000000000E+000 -0.167044650E-014 -0.167044650E-014
  0.777601221E+007  0.000000000E+000 -0.167044650E-014 -0.167044650E-014
  0.777601241E+007  0.000000000E+000 -0.167044650E-014 -0.167044650E-014
  0.777601264E+007  0.000000000E+000 -0.167044650E-014 -0.167044650E-014
  0.777601289E+007  0.000000000E+000 -0.167044650E-014 -0.167044650E-014
  0.777601319E+007  0.000000000E+000 -0.167044650E-014 -0.167044650E-014
  0.777601351E+007  0.000000000E+000 -0.167044650E-014 -0.167044650E-014
  0.777601381E+007  0.000000000E+000 -0.167044650E-014 -0.167044650E-014
  0.777601406E+007  0.000000000E+000 -0.167044650E-014 -0.167044650E-014
  0.777601429E+007  0.000000000E+000 -0.167044650E-014 -0.167044650E-014
  0.777601450E+007  0.000000000E+000 -0.167044650E-014 -0.167044650E-014
  0.777601469E+007  0.000000000E+000 -0.167044650E-014 -0.167044650E-014
  0.777601489E+007  0.000000000E+000 -0.167044650E-014 -0.167044650E-014
  0.777601510E+007  0.000000000E+000 -0.167044650E-014 -0.167044650E-014
  0.777601532E+007  0.000000000E+000 -0.167044650E-014 -0.167044650E-014
  0.777601556E+007  0.000000000E+000 -0.167044650E-014 -0.167044650E-014
  0.777601583E+007  0.000000000E+000 -0.167044650E-014 -0.167044650E-014
  0.777601613E+007  0.000000000E+000 -0.167044650E-014 -0.167044650E-014
  0.777601640E+007  0.000000000E+000 -0.167044650E-014 -0.167044650E-014
  0.777601666E+007  0.000000000E+000 -0.167044650E-014 -0.167044650E-014
  0.777601692E+007  0.000000000E+000 -0.167044650E-014 -0.167044650E-014
  0.777601718E+007  0.000000000E+000 -0.167044650E-014 -0.167044650E-014
  0.777601744E+007  0.000000000E+000 -0.167044650E-014 -0.167044650E-014
  0.777601771E+007  0.000000000E+000 -0.167044650E-014 -0.167044650E-014
  0.777601800E+007  0.000000000E+000 -0.167044650E-014 -0.167044650E-014
  0.777601831E+007  0.000000000E+000 -0.167044650E-014 -0.167044650E-014
  0.777601863E+007  0.000000000E+000 -0.167044650E-014 -0.167044650E-014
  0.777601892E+007  0.000000000E+000 -0.167044650E-014 -0.167044650E-014
  0.777601920E+007  0.000000000E+000 -0.167044650E-014 -0.167044650E-014
  0.777601947E+007  0.000000000E+000 -0.167044650E-014 -0.167044650E-014
  0.777601974E+007  0.000000000E+000 -0.167044650E-014 -0.167044650E-014
  0.777602001E+007  0.000000000E+000 -0.167044650E-014 -0.167044650E-014
  0.777602029E+007  0.000000000E+000 -0.167044650E-014 -0.167044650E-014
  0.777602058E+007  0.000000000E+000 -0.167044650E-014 -0.167044650E-014
  0.777602088E+007  0.000000000E+000 -0.167044650E-014 -0.167044650E-014
  0.777602121E+007  0.000000000E+000 -0.167044650E-014 -0.167044650E-014
  0.777602150E+007  0.000000000E+000 -0.167044650E-014 -0.167044650E-014
  0.777602179E+007  0.000000000E+000 -0.167044650E-014 -0.167044650E-014
  0.777602209E+007  0.000000000E+000 -0.167044650E-014 -0.167044650E-014
  0.777602240E+007  0.000000000E+000 -0.167044650E-014 -0.167044650E-014
  0.777602273E+007  0.000000000E+000 -0.167044650E-014 -0.167044650E-014
  0.777602310E+007  0.000000000E+000 -0.167044650E-014 -0.167044650E-014
  0.777602348E+007  0.000000000E+000 -0.167044650E-014 -0.167044650E-014
  0.777602380E+007  0.000000000E+000 -0.167044650E-014 -0.167044650E-014
  0.777602410E+007  0.000000000E+000 -0.167044650E-014 -0.167044650E-014
  0.777602437E+007  0.000000000E+000 -0.167044650E-014 -0.167044650E-014
  0.777602466E+007  0.000000000E+000 -0.167044650E-014 -0.167044650E-014
  0.777602497E+007  0.000000000E+000 -0.167044650E-014 -0.167044650E-014
  0.777602530E+007  0.000000000E+000 -0.167044650E-014 -0.167044650E-014
  0.777602568E+007  0.000000000E+000 -0.167044650E-014 -0.167044650E-014
  0.777602608E+007  0.000000000E+000 -0.167044650E-014 -0.167044650E-014
  0.777602645E+007  0.000000000E+000 -0.167044650E-014 -0.167044650E-014
  0.777602681E+007  0.000000000E+000 -0.167044650E-014 -0.167044650E-014
  0.777602718E+007  0.000000000E+000 -0.167044650E-014 -0.167044650E-014
  0.777602755E+007  0.000000000E+000 -0.167044650E-014 -0.167044650E-014
  0.777602795E+007  0.000000000E+000 -0.167044650E-014 -0.167044650E-014
  0.777602836E+007  0.000000000E+000 -0.167044650E-014 -0.167044650E-014
  0.777602881E+007  0.000000000E+000 -0.167044650E-014 -0.167044650E-014
  0.777602922E+007  0.000000000E+000 -0.167044650E-014 -0.167044650E-014
  0.777602961E+007  0.000000000E+000 -0.167044650E-014 -0.167044650E-014
  0.777603000E+007  0.000000000E+000 -0.167044650E-014 -0.167044650E-014
  0.777603039E+007  0.000000000E+000 -0.167044650E-014 -0.167044650E-014
  0.777603078E+007  0.000000000E+000 -0.167044650E-014 -0.167044650E-014
  0.777603119E+007  0.000000000E+000 -0.167044650E-014 -0.167044650E-014
  0.777603163E+007  0.000000000E+000 -0.167044650E-014 -0.167044650E-014
  0.777603205E+007  0.000000000E+000 -0.167044650E-014 -0.167044650E-014
  0.777603244E+007  0.000000000E+000 -0.167044650E-014 -0.167044650E-014
  0.777603281E+007  0.000000000E+000 -0.167044650E-014 -0.167044650E-014
  0.777603320E+007  0.000000000E+000 -0.167044650E-014 -0.167044650E-014
  0.777603358E+007  0.000000000E+000 -0.167044650E-014 -0.167044650E-014
  0.777603397E+007  0.000000000E+000 -0.167044650E-014 -0.167044650E-014
  0.777603441E+007  0.000000000E+000 -0.167044650E-014 -0.167044650E-014
  0.777603485E+007  0.000000000E+000 -0.167044650E-014 -0.167044650E-014
  0.777603527E+007  0.000000000E+000 -0.167044650E-014 -0.167044650E-014
  0.777603570E+007  0.000000000E+000 -0.167044650E-014 -0.167044650E-014
  0.777603614E+007  0.000000000E+000 -0.167044650E-014 -0.167044650E-014
  0.777603661E+007  0.000000000E+000 -0.167044650E-014 -0.167044650E-014
  0.777603709E+007  0.000000000E+000 -0.167044650E-014 -0.167044650E-014
  0.777603753E+007  0.000000000E+000 -0.167044650E-014 -0.167044650E-014
  0.777603796E+007  0.000000000E+000 -0.167044650E-014 -0.167044650E-014
  0.777603837E+007  0.000000000E+000 -0.167044650E-014 -0.167044650E-014
  0.777603883E+007  0.000000000E+000 -0.167044650E-014 -0.167044650E-014
  0.777603934E+007  0.000000000E+000 -0.167044650E-014 -0.167044650E-014
  0.777603989E+007  0.000000000E+000 -0.167044650E-014 -0.167044650E-014
  0.777604042E+007  0.000000000E+000 -0.167044650E-014 -0.167044650E-014
  0.777604095E+007  0.000000000E+000 -0.167044650E-014 -0.167044650E-014
  0.777604148E+007  0.000000000E+000 -0.167044650E-014 -0.167044650E-014
  0.777604205E+007  0.000000000E+000 -0.167044650E-014 -0.167044650E-014
  0.777604266E+007  0.000000000E+000 -0.167044650E-014 -0.167044650E-014
  0.777604326E+007  0.000000000E+000 -0.167044650E-014 -0.167044650E-014
  0.777604383E+007  0.000000000E+000 -0.167044650E-014 -0.167044650E-014
  0.777604440E+007  0.000000000E+000 -0.167044650E-014 -0.167044650E-014
  0.777604497E+007  0.000000000E+000 -0.167044650E-014 -0.167044650E-014
  0.777604557E+007  0.000000000E+000 -0.167044650E-014 -0.167044650E-014
  0.777604620E+007  0.000000000E+000 -0.167044650E-014 -0.167044650E-014
  0.777604679E+007  0.000000000E+000 -0.167044650E-014 -0.167044650E-014
  0.777604735E+007  0.000000000E+000 -0.167044650E-014 -0.167044650E-014
  0.777604791E+007  0.000000000E+000 -0.167044650E-014 -0.167044650E-014
  0.777604848E+007  0.000000000E+000 -0.167044650E-014 -0.167044650E-014
  0.777604907E+007  0.000000000E+000 -0.167044650E-014 -0.167044650E-014
  0.777604968E+007  0.000000000E+000 -0.167044650E-014 -0.167044650E-014
  0.777605025E+007  0.000000000E+000 -0.167044650E-014 -0.167044650E-014
  0.777605080E+007  0.000000000E+000 -0.167044650E-014 -0.167044650E-014
  0.777605135E+007  0.000000000E+000 -0.167044650E-014 -0.167044650E-014
  0.777605191E+007  0.000000000E+000 -0.167044650E-014 -0.167044650E-014
  0.777605249E+007  0.000000000E+000 -0.167044650E-014 -0.167044650E-014
  0.777605311E+007  0.000000000E+000 -0.167044650E-014 -0.167044650E-014
  0.777605369E+007  0.000000000E+000 -0.167044650E-014 -0.167044650E-014
  0.777605428E+007  0.000000000E+000 -0.167044650E-014 -0.167044650E-014
  0.777605487E+007  0.000000000E+000 -0.167044650E-014 -0.167044650E-014
  0.777605551E+007  0.000000000E+000 -0.167044650E-014 -0.167044650E-014
  0.777605621E+007  0.000000000E+000 -0.167044650E-014 -0.167044650E-014
  0.777605687E+007  0.000000000E+000 -0.167044650E-014 -0.167044650E-014
  0.777605753E+007  0.000000000E+000 -0.167044650E-014 -0.167044650E-014
  0.777605819E+007  0.000000000E+000 -0.167044650E-014 -0.167044650E-014
  0.777605889E+007  0.000000000E+000 -0.167044650E-014 -0.167044650E-014
  0.777605962E+007  0.000000000E+000 -0.167044650E-014 -0.167044650E-014
  0.777606040E+007  0.000000000E+000 -0.167044650E-014 -0.167044650E-014
  0.777606123E+007  0.000000000E+000 -0.167044650E-014 -0.167044650E-014
  0.777606210E+007  0.000000000E+000 -0.167044650E-014 -0.167044650E-014
  0.777606294E+007  0.000000000E+000 -0.167044650E-014 -0.167044650E-014
  0.777606379E+007  0.000000000E+000 -0.167044650E-014 -0.167044650E-014
  0.777606465E+007  0.000000000E+000 -0.167044650E-014 -0.167044650E-014
  0.777606556E+007  0.000000000E+000 -0.167044650E-014 -0.167044650E-014
  0.777606649E+007  0.000000000E+000 -0.167044650E-014 -0.167044650E-014
  0.777606738E+007  0.000000000E+000 -0.167044650E-014 -0.167044650E-014
  0.777606827E+007  0.000000000E+000 -0.167044650E-014 -0.167044650E-014
  0.777606918E+007  0.000000000E+000 -0.167044650E-014 -0.167044650E-014
  0.777607011E+007  0.000000000E+000 -0.167044650E-014 -0.167044650E-014
  0.777607099E+007  0.000000000E+000 -0.167044650E-014 -0.167044650E-014
  0.777607185E+007  0.000000000E+000 -0.167044650E-014 -0.167044650E-014
  0.777607273E+007  0.000000000E+000 -0.167044650E-014 -0.167044650E-014
  0.777607365E+007  0.000000000E+000 -0.167044650E-014 -0.167044650E-014
  0.777607452E+007  0.000000000E+000 -0.167044650E-014 -0.167044650E-014
  0.777607536E+007  0.000000000E+000 -0.167044650E-014 -0.167044650E-014
  0.777607621E+007  0.000000000E+000 -0.167044650E-014 -0.167044650E-014
  0.777607708E+007  0.000000000E+000 -0.167044650E-014 -0.167044650E-014
  0.777607801E+007  0.000000000E+000 -0.167044650E-014 -0.167044650E-014
  0.777607888E+007  0.000000000E+000 -0.167044650E-014 -0.167044650E-014
  0.777607971E+007  0.000000000E+000 -0.167044650E-014 -0.167044650E-014
  0.777608056E+007  0.000000000E+000 -0.167044650E-014 -0.167044650E-014
  0.777608148E+007  0.000000000E+000 -0.167044650E-014 -0.167044650E-014
  0.777608242E+007  0.000000000E+000 -0.167044650E-014 -0.167044650E-014
  0.777608332E+007  0.000000000E+000 -0.167044650E-014 -0.167044650E-014
  0.777608425E+007  0.000000000E+000 -0.167044650E-014 -0.167044650E-014
  0.777608521E+007  0.000000000E+000 -0.167044650E-014 -0.167044650E-014
  0.777608627E+007  0.000000000E+000 -0.167044650E-014 -0.167044650E-014
  0.777608741E+007  0.000000000E+000 -0.167044650E-014 -0.167044650E-014
  0.777608841E+007  0.000000000E+000 -0.167044650E-014 -0.167044650E-014
  0.777608943E+007  0.000000000E+000 -0.167044650E-014 -0.167044650E-014
  0.777609050E+007  0.000000000E+000 -0.167044650E-014 -0.167044650E-014
  0.777609165E+007  0.000000000E+000 -0.167044650E-014 -0.167044650E-014
  0.777609286E+007  0.000000000E+000 -0.167044650E-014 -0.167044650E-014
  0.777609401E+007  0.000000000E+000 -0.167044650E-014 -0.167044650E-014
  0.777609517E+007  0.000000000E+000 -0.167044650E-014 -0.167044650E-014
  0.777609637E+007  0.000000000E+000 -0.167044650E-014 -0.167044650E-014
  0.777609761E+007  0.000000000E+000 -0.167044650E-014 -0.167044650E-014
  0.777609887E+007  0.000000000E+000 -0.167044650E-014 -0.167044650E-014
  0.777610014E+007  0.000000000E+000 -0.167044650E-014 -0.167044650E-014
  0.777610142E+007  0.000000000E+000 -0.167044650E-014 -0.167044650E-014
  0.777610272E+007  0.000000000E+000 -0.167044650E-014 -0.167044650E-014
  0.777610403E+007  0.000000000E+000 -0.167044650E-014 -0.167044650E-014
  0.777610535E+007  0.000000000E+000 -0.167044650E-014 -0.167044650E-014
  0.777610668E+007  0.000000000E+000 -0.167044650E-014 -0.167044650E-014
  0.777610801E+007  0.000000000E+000 -0.167044650E-014 -0.167044650E-014
  0.777610938E+007  0.000000000E+000 -0.167044650E-014 -0.167044650E-014
  0.777611076E+007  0.000000000E+000 -0.167044650E-014 -0.167044650E-014
  0.777611212E+007  0.000000000E+000 -0.167044650E-014 -0.167044650E-014
  0.777611349E+007  0.000000000E+000 -0.167044650E-014 -0.167044650E-014
  0.777611488E+007  0.000000000E+000 -0.167044650E-014 -0.167044650E-014
  0.777611627E+007  0.000000000E+000 -0.167044650E-014 -0.167044650E-014
  0.777611763E+007  0.000000000E+000 -0.167044650E-014 -0.167044650E-014
  0.777611901E+007  0.000000000E+000 -0.167044650E-014 -0.167044650E-014
  0.777612048E+007  0.000000000E+000 -0.167044650E-014 -0.167044650E-014
  0.777612185E+007  0.000000000E+000 -0.167044650E-014 -0.167044650E-014
  0.777612322E+007  0.000000000E+000 -0.167044650E-014 -0.167044650E-014
  0.777612463E+007  0.000000000E+000 -0.167044650E-014 -0.167044650E-014
  0.777612608E+007  0.000000000E+000 -0.167044650E-014 -0.167044650E-014
  0.777612753E+007  0.000000000E+000 -0.167044650E-014 -0.167044650E-014
  0.777612897E+007  0.000000000E+000 -0.167044650E-014 -0.167044650E-014
  0.777613042E+007  0.000000000E+000 -0.167044650E-014 -0.167044650E-014
  0.777613189E+007  0.000000000E+000 -0.167044650E-014 -0.167044650E-014
  0.777613336E+007  0.000000000E+000 -0.167044650E-014 -0.167044650E-014
  0.777613484E+007  0.000000000E+000 -0.167044650E-014 -0.167044650E-014
  0.777613634E+007  0.000000000E+000 -0.167044650E-014 -0.167044650E-014
  0.777613783E+007  0.000000000E+000 -0.167044650E-014 -0.167044650E-014
  0.777613932E+007  0.000000000E+000 -0.167044650E-014 -0.167044650E-014
  0.777614084E+007  0.000000000E+000 -0.167044650E-014 -0.167044650E-014
  0.777614234E+007  0.000000000E+000 -0.167044650E-014 -0.167044650E-014
  0.777614387E+007  0.000000000E+000 -0.167044650E-014 -0.167044650E-014
  0.777614540E+007  0.000000000E+000 -0.167044650E-014 -0.167044650E-014
  0.777614693E+007  0.000000000E+000 -0.167044650E-014 -0.167044650E-014
  0.777614846E+007  0.000000000E+000 -0.167044650E-014 -0.167044650E-014
  0.777615000E+007  0.000000000E+000 -0.167044650E-014 -0.167044650E-014
  0.777615154E+007  0.000000000E+000 -0.167044650E-014 -0.167044650E-014
  0.777615312E+007  0.000000000E+000 -0.167044650E-014 -0.167044650E-014
  0.777615467E+007  0.000000000E+000 -0.167044650E-014 -0.167044650E-014
  0.777615623E+007  0.000000000E+000 -0.167044650E-014 -0.167044650E-014
  0.777615780E+007  0.000000000E+000 -0.167044650E-014 -0.167044650E-014
  0.777615937E+007  0.000000000E+000 -0.167044650E-014 -0.167044650E-014
  0.777616095E+007  0.000000000E+000 -0.167044650E-014 -0.167044650E-014
  0.777616255E+007  0.000000000E+000 -0.167044650E-014 -0.167044650E-014
  0.777616413E+007  0.000000000E+000 -0.167044650E-014 -0.167044650E-014
  0.777616572E+007  0.000000000E+000 -0.167044650E-014 -0.167044650E-014
  0.777616733E+007  0.000000000E+000 -0.167044650E-014 -0.167044650E-014
  0.777616892E+007  0.000000000E+000 -0.167044650E-014 -0.167044650E-014
  0.777617054E+007  0.000000000E+000 -0.167044650E-014 -0.167044650E-014
  0.777617215E+007  0.000000000E+000 -0.167044650E-014 -0.167044650E-014
  0.777617376E+007  0.000000000E+000 -0.167044650E-014 -0.167044650E-014
  0.777617538E+007  0.000000000E+000 -0.167044650E-014 -0.167044650E-014
  0.777617700E+007  0.000000000E+000 -0.167044650E-014 -0.167044650E-014
  0.777617863E+007  0.000000000E+000 -0.167044650E-014 -0.167044650E-014
  0.777618028E+007  0.000000000E+000 -0.167044650E-014 -0.167044650E-014
  0.777618190E+007  0.000000000E+000 -0.167044650E-014 -0.167044650E-014