Title = "_x0.4_ Hydrograph"
variables="Time","Surface","Porous media","Total"
zone t="_x0.4_"
  0.100000000E-004  0.000000000E+000 -0.400010993E-024 -0.400010993E-024
  0.229217180E-004  0.000000000E+000 -0.400010946E-024 -0.400010946E-024
  0.487651539E-004  0.000000000E+000 -0.400010971E-024 -0.400010971E-024
  0.100452026E-003  0.000000000E+000 -0.400017256E-024 -0.400017256E-024
  0.203825770E-003  0.000000000E+000 -0.403061995E-024 -0.403061995E-024
  0.410573257E-003  0.000000000E+000 -0.787007962E-023 -0.787007962E-023
  0.824068232E-003  0.000000000E+000 -0.235825692E-020 -0.235825692E-020
  0.165105818E-002  0.000000000E+000 -0.250745556E-018 -0.250745556E-018
  0.330503808E-002  0.000000000E+000 -0.312324641E-017 -0.312324641E-017
  0.661299788E-002  0.000000000E+000 -0.278601178E-016 -0.278601178E-016
  0.132289175E-001  0.000000000E+000 -0.836133371E-016 -0.836133371E-016
  0.264607567E-001  0.000000000E+000 -0.111796689E-015 -0.111796689E-015
  0.529244351E-001  0.000000000E+000 -0.131925016E-015 -0.131925016E-015
  0.105851792E+000  0.000000000E+000 -0.148627900E-015 -0.148627900E-015
  0.211706506E+000  0.000000000E+000 -0.166050411E-015 -0.166050411E-015
  0.423415933E+000  0.000000000E+000 -0.184904490E-015 -0.184904490E-015
  0.846834787E+000  0.000000000E+000 -0.205487030E-015 -0.205487030E-015
  0.169367250E+001  0.000000000E+000 -0.227945014E-015 -0.227945014E-015
  0.289393167E+001  0.000000000E+000 -0.245818063E-015 -0.245818063E-015
  0.445063180E+001  0.000000000E+000 -0.260941746E-015 -0.260941746E-015
  0.639010731E+001  0.000000000E+000 -0.274309235E-015 -0.274309235E-015
  0.876575611E+001  0.000000000E+000 -0.286529407E-015 -0.286529407E-015
  0.116581236E+002  0.000000000E+000 -0.297993224E-015 -0.297993224E-015
  0.151806649E+002  0.000000000E+000 -0.308971585E-015 -0.308971585E-015
  0.194898323E+002  0.000000000E+000 -0.319665501E-015 -0.319665501E-015
  0.247969402E+002  0.000000000E+000 -0.330227495E-015 -0.330227495E-015
  0.313994420E+002  0.000000000E+000 -0.340793928E-015 -0.340793928E-015
  0.395316316E+002  0.000000000E+000 -0.351299804E-015 -0.351299804E-015
  0.494966337E+002  0.000000000E+000 -0.361732401E-015 -0.361732401E-015
  0.615967736E+002  0.000000000E+000 -0.372050233E-015 -0.372050233E-015
  0.762328442E+002  0.000000000E+000 -0.382261609E-015 -0.382261609E-015
  0.938518939E+002  0.000000000E+000 -0.392366757E-015 -0.392366757E-015
  0.115018532E+003  0.000000000E+000 -0.402386626E-015 -0.402386626E-015
  0.140337656E+003  0.000000000E+000 -0.412321909E-015 -0.412321909E-015
  0.168607251E+003  0.000000000E+000 -0.421709881E-015 -0.421709881E-015
  0.199800655E+003  0.000000000E+000 -0.430579181E-015 -0.430579181E-015
  0.234146891E+003  0.000000000E+000 -0.439013687E-015 -0.439013687E-015
  0.271979222E+003  0.000000000E+000 -0.447093926E-015 -0.447093926E-015
  0.313972401E+003  0.000000000E+000 -0.454928187E-015 -0.454928187E-015
  0.361062193E+003  0.000000000E+000 -0.462620444E-015 -0.462620444E-015
  0.414620661E+003  0.000000000E+000 -0.470282837E-015 -0.470282837E-015
  0.476113514E+003  0.000000000E+000 -0.477985535E-015 -0.477985535E-015
  0.548253254E+003  0.000000000E+000 -0.485866997E-015 -0.485866997E-015
  0.634154781E+003  0.000000000E+000 -0.494016380E-015 -0.494016380E-015
  0.739002236E+003  0.000000000E+000 -0.502585033E-015 -0.502585033E-015
  0.870066657E+003  0.000000000E+000 -0.511719059E-015 -0.511719059E-015
  0.103791838E+004  0.000000000E+000 -0.521570164E-015 -0.521570164E-015
  0.125943183E+004  0.000000000E+000 -0.532339393E-015 -0.532339393E-015
  0.156104626E+004  0.000000000E+000 -0.546692714E-015 -0.546692714E-015
  0.198421156E+004  0.000000000E+000 -0.562558155E-015 -0.562558155E-015
  0.259195812E+004  0.000000000E+000 -0.582522101E-015 -0.582522101E-015
  0.349104276E+004  0.000000000E+000 -0.605526232E-015 -0.605526232E-015
  0.487205626E+004  0.000000000E+000 -0.636194480E-015 -0.636194480E-015
  0.709279411E+004  0.000000000E+000 -0.680914535E-015 -0.680914535E-015
  0.109047395E+005  0.000000000E+000 -0.745641303E-015 -0.745641303E-015
  0.178500716E+005  0.000000000E+000 -0.846725586E-015 -0.846725586E-015
  0.270456014E+005  0.000000000E+000 -0.980025719E-015 -0.980025719E-015
  0.380771961E+005  0.000000000E+000 -0.114699429E-014 -0.114699429E-014
  0.520036179E+005  0.000000000E+000 -0.135227325E-014 -0.135227325E-014
  0.718583752E+005  0.000000000E+000 -0.156667468E-014 -0.156667468E-014
  0.102625301E+006  0.000000000E+000 -0.168958404E-014 -0.168958404E-014
  0.164159152E+006  0.000000000E+000 -0.171985711E-014 -0.171985711E-014
  0.287226853E+006  0.000000000E+000 -0.172305756E-014 -0.172305756E-014
  0.533362257E+006  0.000000000E+000 -0.172323829E-014 -0.172323829E-014
  0.102563306E+007  0.000000000E+000 -0.172324353E-014 -0.172324353E-014
  0.201017468E+007  0.000000000E+000 -0.172324371E-014 -0.172324371E-014
  0.301017468E+007  0.000000000E+000 -0.172324372E-014 -0.172324372E-014
  0.401017468E+007  0.000000000E+000 -0.172324374E-014 -0.172324374E-014
  0.501017468E+007  0.000000000E+000 -0.172324375E-014 -0.172324375E-014
  0.601017468E+007  0.000000000E+000 -0.172324376E-014 -0.172324376E-014
  0.689308734E+007  0.000000000E+000 -0.172324377E-014 -0.172324377E-014
  0.777600000E+007  0.000000000E+000 -0.172324378E-014 -0.172324378E-014
  0.777600000E+007  0.000000000E+000 -0.172324378E-014 -0.172324378E-014
  0.777600000E+007  0.000000000E+000 -0.172324378E-014 -0.172324378E-014
  0.777600000E+007  0.000000000E+000 -0.172324378E-014 -0.172324378E-014
  0.777600001E+007  0.000000000E+000 -0.172324378E-014 -0.172324378E-014
  0.777600002E+007  0.000000000E+000 -0.172324378E-014 -0.172324378E-014
  0.777600003E+007  0.000000000E+000 -0.172324378E-014 -0.172324378E-014
  0.777600004E+007  0.000000000E+000 -0.172324378E-014 -0.172324378E-014
  0.777600005E+007  0.000000000E+000 -0.172324378E-014 -0.172324378E-014
  0.777600006E+007  0.000000000E+000 -0.172324378E-014 -0.172324378E-014
  0.777600008E+007  0.000000000E+000 -0.172324378E-014 -0.172324378E-014
  0.777600009E+007  0.000000000E+000 -0.172324378E-014 -0.172324378E-014
  0.777600010E+007  0.000000000E+000 -0.172324378E-014 -0.172324378E-014
  0.777600011E+007  0.000000000E+000 -0.172324378E-014 -0.172324378E-014
  0.777600012E+007  0.000000000E+000 -0.172324378E-014 -0.172324378E-014
  0.777600014E+007  0.000000000E+000 -0.172324378E-014 -0.172324378E-014
  0.777600015E+007  0.000000000E+000 -0.172324378E-014 -0.172324378E-014
  0.777600016E+007  0.000000000E+000 -0.172324378E-014 -0.172324378E-014
  0.777600018E+007  0.000000000E+000 -0.172324378E-014 -0.172324378E-014
  0.777600019E+007  0.000000000E+000 -0.172324378E-014 -0.172324378E-014
  0.777600021E+007  0.000000000E+000 -0.172324378E-014 -0.172324378E-014
  0.777600022E+007  0.000000000E+000 -0.172324378E-014 -0.172324378E-014
  0.777600023E+007  0.000000000E+000 -0.172324378E-014 -0.172324378E-014
  0.777600024E+007  0.000000000E+000 -0.172324378E-014 -0.172324378E-014
  0.777600026E+007  0.000000000E+000 -0.172324378E-014 -0.172324378E-014
  0.777600029E+007  0.000000000E+000 -0.172324378E-014 -0.172324378E-014
  0.777600034E+007  0.000000000E+000 -0.172324378E-014 -0.172324378E-014
  0.777600039E+007  0.000000000E+000 -0.172324378E-014 -0.172324378E-014
  0.777600044E+007  0.000000000E+000 -0.172324378E-014 -0.172324378E-014
  0.777600050E+007  0.000000000E+000 -0.172324378E-014 -0.172324378E-014
  0.777600057E+007  0.000000000E+000 -0.172324378E-014 -0.172324378E-014
  0.777600063E+007  0.000000000E+000 -0.172324378E-014 -0.172324378E-014
  0.777600069E+007  0.000000000E+000 -0.172324378E-014 -0.172324378E-014
  0.777600073E+007  0.000000000E+000 -0.172324378E-014 -0.172324378E-014
  0.777600078E+007  0.000000000E+000 -0.172324378E-014 -0.172324378E-014
  0.777600082E+007  0.000000000E+000 -0.172324378E-014 -0.172324378E-014
  0.777600086E+007  0.000000000E+000 -0.172324378E-014 -0.172324378E-014
  0.777600091E+007  0.000000000E+000 -0.172324378E-014 -0.172324378E-014
  0.777600095E+007  0.000000000E+000 -0.172324378E-014 -0.172324378E-014
  0.777600099E+007  0.000000000E+000 -0.172324378E-014 -0.172324378E-014
  0.777600104E+007  0.000000000E+000 -0.172324378E-014 -0.172324378E-014
  0.777600109E+007  0.000000000E+000 -0.172324378E-014 -0.172324378E-014
  0.777600114E+007  0.000000000E+000 -0.172324378E-014 -0.172324378E-014
  0.777600119E+007  0.000000000E+000 -0.172324378E-014 -0.172324378E-014
  0.777600126E+007  0.000000000E+000 -0.172324378E-014 -0.172324378E-014
  0.777600132E+007  0.000000000E+000 -0.172324378E-014 -0.172324378E-014
  0.777600140E+007  0.000000000E+000 -0.172324378E-014 -0.172324378E-014
  0.777600150E+007  0.000000000E+000 -0.172324378E-014 -0.172324378E-014
  0.777600159E+007  0.000000000E+000 -0.172324378E-014 -0.172324378E-014
  0.777600166E+007  0.000000000E+000 -0.172324378E-014 -0.172324378E-014
  0.777600174E+007  0.000000000E+000 -0.172324378E-014 -0.172324378E-014
  0.777600181E+007  0.000000000E+000 -0.172324378E-014 -0.172324378E-014
  0.777600189E+007  0.000000000E+000 -0.172324378E-014 -0.172324378E-014
  0.777600197E+007  0.000000000E+000 -0.172324378E-014 -0.172324378E-014
  0.777600206E+007  0.000000000E+000 -0.172324378E-014 -0.172324378E-014
  0.777600215E+007  0.000000000E+000 -0.172324378E-014 -0.172324378E-014
  0.777600226E+007  0.000000000E+000 -0.172324378E-014 -0.172324378E-014
  0.777600238E+007  0.000000000E+000 -0.172324378E-014 -0.172324378E-014
  0.777600251E+007  0.000000000E+000 -0.172324378E-014 -0.172324378E-014
  0.777600266E+007  0.000000000E+000 -0.172324378E-014 -0.172324378E-014
  0.777600284E+007  0.000000000E+000 -0.172324378E-014 -0.172324378E-014
  0.777600300E+007  0.000000000E+000 -0.172324378E-014 -0.172324378E-014
  0.777600312E+007  0.000000000E+000 -0.172324378E-014 -0.172324378E-014
  0.777600323E+007  0.000000000E+000 -0.172324377E-014 -0.172324377E-014
  0.777600333E+007  0.000000000E+000 -0.172324377E-014 -0.172324377E-014
  0.777600342E+007  0.000000000E+000 -0.172324377E-014 -0.172324377E-014
  0.777600351E+007  0.000000000E+000 -0.172324377E-014 -0.172324377E-014
  0.777600360E+007  0.000000000E+000 -0.172324377E-014 -0.172324377E-014
  0.777600369E+007  0.000000000E+000 -0.172324377E-014 -0.172324377E-014
  0.777600378E+007  0.000000000E+000 -0.172324377E-014 -0.172324377E-014
  0.777600388E+007  0.000000000E+000 -0.172324376E-014 -0.172324376E-014
  0.777600399E+007  0.000000000E+000 -0.172324376E-014 -0.172324376E-014
  0.777600411E+007  0.000000000E+000 -0.172324376E-014 -0.172324376E-014
  0.777600424E+007  0.000000000E+000 -0.172324375E-014 -0.172324375E-014
  0.777600439E+007  0.000000000E+000 -0.172324374E-014 -0.172324374E-014
  0.777600454E+007  0.000000000E+000 -0.172324373E-014 -0.172324373E-014
  0.777600466E+007  0.000000000E+000 -0.172324372E-014 -0.172324372E-014
  0.777600479E+007  0.000000000E+000 -0.172324371E-014 -0.172324371E-014
  0.777600491E+007  0.000000000E+000 -0.172324369E-014 -0.172324369E-014
  0.777600502E+007  0.000000000E+000 -0.172324368E-014 -0.172324368E-014
  0.777600514E+007  0.000000000E+000 -0.172324366E-014 -0.172324366E-014
  0.777600526E+007  0.000000000E+000 -0.172324363E-014 -0.172324363E-014
  0.777600539E+007  0.000000000E+000 -0.172324360E-014 -0.172324360E-014
  0.777600553E+007  0.000000000E+000 -0.172324357E-014 -0.172324357E-014
  0.777600568E+007  0.000000000E+000 -0.172324352E-014 -0.172324352E-014
  0.777600584E+007  0.000000000E+000 -0.172324345E-014 -0.172324345E-014
  0.777600604E+007  0.000000000E+000 -0.172324336E-014 -0.172324336E-014
  0.777600621E+007  0.000000000E+000 -0.172324326E-014 -0.172324326E-014
  0.777600637E+007  0.000000000E+000 -0.172324316E-014 -0.172324316E-014
  0.777600653E+007  0.000000000E+000 -0.172324304E-014 -0.172324304E-014
  0.777600670E+007  0.000000000E+000 -0.172324289E-014 -0.172324289E-014
  0.777600688E+007  0.000000000E+000 -0.172324271E-014 -0.172324271E-014
  0.777600707E+007  0.000000000E+000 -0.172324249E-014 -0.172324249E-014
  0.777600728E+007  0.000000000E+000 -0.172324220E-014 -0.172324220E-014
  0.777600746E+007  0.000000000E+000 -0.172324191E-014 -0.172324191E-014
  0.777600762E+007  0.000000000E+000 -0.172324161E-014 -0.172324161E-014
  0.777600777E+007  0.000000000E+000 -0.172324131E-014 -0.172324131E-014
  0.777600790E+007  0.000000000E+000 -0.172324101E-014 -0.172324101E-014
  0.777600804E+007  0.000000000E+000 -0.172324066E-014 -0.172324066E-014
  0.777600817E+007  0.000000000E+000 -0.172324027E-014 -0.172324027E-014
  0.777600831E+007  0.000000000E+000 -0.172323982E-014 -0.172323982E-014
  0.777600847E+007  0.000000000E+000 -0.172323928E-014 -0.172323928E-014
  0.777600863E+007  0.000000000E+000 -0.172323861E-014 -0.172323861E-014
  0.777600881E+007  0.000000000E+000 -0.172323775E-014 -0.172323775E-014
  0.777600902E+007  0.000000000E+000 -0.172323661E-014 -0.172323661E-014
  0.777600922E+007  0.000000000E+000 -0.172323529E-014 -0.172323529E-014
  0.777600941E+007  0.000000000E+000 -0.172323387E-014 -0.172323387E-014
  0.777600960E+007  0.000000000E+000 -0.172323231E-014 -0.172323231E-014
  0.777600978E+007  0.000000000E+000 -0.172323059E-014 -0.172323059E-014
  0.777600996E+007  0.000000000E+000 -0.172322866E-014 -0.172322866E-014
  0.777601014E+007  0.000000000E+000 -0.172322649E-014 -0.172322649E-014
  0.777601033E+007  0.000000000E+000 -0.172322400E-014 -0.172322400E-014
  0.777601052E+007  0.000000000E+000 -0.172322111E-014 -0.172322111E-014
  0.777601072E+007  0.000000000E+000 -0.172321766E-014 -0.172321766E-014
  0.777601095E+007  0.000000000E+000 -0.172321344E-014 -0.172321344E-014
  0.777601118E+007  0.000000000E+000 -0.172320832E-014 -0.172320832E-014
  0.777601141E+007  0.000000000E+000 -0.172320273E-014 -0.172320273E-014
  0.777601162E+007  0.000000000E+000 -0.172319711E-014 -0.172319711E-014
  0.777601182E+007  0.000000000E+000 -0.172319135E-014 -0.172319135E-014
  0.777601201E+007  0.000000000E+000 -0.172318524E-014 -0.172318524E-014
  0.777601221E+007  0.000000000E+000 -0.172317854E-014 -0.172317854E-014
  0.777601241E+007  0.000000000E+000 -0.172317093E-014 -0.172317093E-014
  0.777601264E+007  0.000000000E+000 -0.172316173E-014 -0.172316173E-014
  0.777601289E+007  0.000000000E+000 -0.172315017E-014 -0.172315017E-014
  0.777601319E+007  0.000000000E+000 -0.172313485E-014 -0.172313485E-014
  0.777601351E+007  0.000000000E+000 -0.172311597E-014 -0.172311597E-014
  0.777601381E+007  0.000000000E+000 -0.172309565E-014 -0.172309565E-014
  0.777601406E+007  0.000000000E+000 -0.172307605E-014 -0.172307605E-014
  0.777601429E+007  0.000000000E+000 -0.172305691E-014 -0.172305691E-014
  0.777601450E+007  0.000000000E+000 -0.172303732E-014 -0.172303732E-014
  0.777601469E+007  0.000000000E+000 -0.172301782E-014 -0.172301782E-014
  0.777601489E+007  0.000000000E+000 -0.172299571E-014 -0.172299571E-014
  0.777601510E+007  0.000000000E+000 -0.172297035E-014 -0.172297035E-014
  0.777601532E+007  0.000000000E+000 -0.172294048E-014 -0.172294048E-014
  0.777601556E+007  0.000000000E+000 -0.172290433E-014 -0.172290433E-014
  0.777601583E+007  0.000000000E+000 -0.172285911E-014 -0.172285911E-014
  0.777601613E+007  0.000000000E+000 -0.172280371E-014 -0.172280371E-014
  0.777601640E+007  0.000000000E+000 -0.172274742E-014 -0.172274742E-014
  0.777601666E+007  0.000000000E+000 -0.172268773E-014 -0.172268773E-014
  0.777601692E+007  0.000000000E+000 -0.172262364E-014 -0.172262364E-014
  0.777601718E+007  0.000000000E+000 -0.172255384E-014 -0.172255384E-014
  0.777601744E+007  0.000000000E+000 -0.172247670E-014 -0.172247670E-014
  0.777601771E+007  0.000000000E+000 -0.172239015E-014 -0.172239015E-014
  0.777601800E+007  0.000000000E+000 -0.172229131E-014 -0.172229131E-014
  0.777601831E+007  0.000000000E+000 -0.172217603E-014 -0.172217603E-014
  0.777601863E+007  0.000000000E+000 -0.172204926E-014 -0.172204926E-014
  0.777601892E+007  0.000000000E+000 -0.172192456E-014 -0.172192456E-014
  0.777601920E+007  0.000000000E+000 -0.172179749E-014 -0.172179749E-014
  0.777601947E+007  0.000000000E+000 -0.172166593E-014 -0.172166593E-014
  0.777601974E+007  0.000000000E+000 -0.172152728E-014 -0.172152728E-014
  0.777602001E+007  0.000000000E+000 -0.172137839E-014 -0.172137839E-014
  0.777602029E+007  0.000000000E+000 -0.172121459E-014 -0.172121459E-014
  0.777602058E+007  0.000000000E+000 -0.172103379E-014 -0.172103379E-014
  0.777602088E+007  0.000000000E+000 -0.172082695E-014 -0.172082695E-014
  0.777602121E+007  0.000000000E+000 -0.172058549E-014 -0.172058549E-014
  0.777602150E+007  0.000000000E+000 -0.172036107E-014 -0.172036107E-014
  0.777602179E+007  0.000000000E+000 -0.172011571E-014 -0.172011571E-014
  0.777602209E+007  0.000000000E+000 -0.171984382E-014 -0.171984382E-014
  0.777602240E+007  0.000000000E+000 -0.171953248E-014 -0.171953248E-014
  0.777602273E+007  0.000000000E+000 -0.171916373E-014 -0.171916373E-014
  0.777602310E+007  0.000000000E+000 -0.171870720E-014 -0.171870720E-014
  0.777602348E+007  0.000000000E+000 -0.171819017E-014 -0.171819017E-014
  0.777602380E+007  0.000000000E+000 -0.171770408E-014 -0.171770408E-014
  0.777602410E+007  0.000000000E+000 -0.171721368E-014 -0.171721368E-014
  0.777602437E+007  0.000000000E+000 -0.171672998E-014 -0.171672998E-014
  0.777602466E+007  0.000000000E+000 -0.171618536E-014 -0.171618536E-014
  0.777602497E+007  0.000000000E+000 -0.171556550E-014 -0.171556550E-014
  0.777602530E+007  0.000000000E+000 -0.171484088E-014 -0.171484088E-014
  0.777602568E+007  0.000000000E+000 -0.171397131E-014 -0.171397131E-014
  0.777602608E+007  0.000000000E+000 -0.171298954E-014 -0.171298954E-014
  0.777602645E+007  0.000000000E+000 -0.171201794E-014 -0.171201794E-014
  0.777602681E+007  0.000000000E+000 -0.171101743E-014 -0.171101743E-014
  0.777602718E+007  0.000000000E+000 -0.170996848E-014 -0.170996848E-014
  0.777602755E+007  0.000000000E+000 -0.170884871E-014 -0.170884871E-014
  0.777602795E+007  0.000000000E+000 -0.170763240E-014 -0.170763240E-014
  0.777602836E+007  0.000000000E+000 -0.170628630E-014 -0.170628630E-014
  0.777602881E+007  0.000000000E+000 -0.170479523E-014 -0.170479523E-014
  0.777602922E+007  0.000000000E+000 -0.170339088E-014 -0.170339088E-014
  0.777602961E+007  0.000000000E+000 -0.170195484E-014 -0.170195484E-014
  0.777603000E+007  0.000000000E+000 -0.170043825E-014 -0.170043825E-014
  0.777603039E+007  0.000000000E+000 -0.169879417E-014 -0.169879417E-014
  0.777603078E+007  0.000000000E+000 -0.169696965E-014 -0.169696965E-014
  0.777603119E+007  0.000000000E+000 -0.169489630E-014 -0.169489630E-014
  0.777603163E+007  0.000000000E+000 -0.169247718E-014 -0.169247718E-014
  0.777603205E+007  0.000000000E+000 -0.169001271E-014 -0.169001271E-014
  0.777603244E+007  0.000000000E+000 -0.168747147E-014 -0.168747147E-014
  0.777603281E+007  0.000000000E+000 -0.168480152E-014 -0.168480152E-014
  0.777603320E+007  0.000000000E+000 -0.168188883E-014 -0.168188883E-014
  0.777603358E+007  0.000000000E+000 -0.167877628E-014 -0.167877628E-014
  0.777603397E+007  0.000000000E+000 -0.167526499E-014 -0.167526499E-014
  0.777603441E+007  0.000000000E+000 -0.167106386E-014 -0.167106386E-014
  0.777603485E+007  0.000000000E+000 -0.166659399E-014 -0.166659399E-014
  0.777603527E+007  0.000000000E+000 -0.166196192E-014 -0.166196192E-014
  0.777603570E+007  0.000000000E+000 -0.165697824E-014 -0.165697824E-014
  0.777603614E+007  0.000000000E+000 -0.165160859E-014 -0.165160859E-014
  0.777603661E+007  0.000000000E+000 -0.164546395E-014 -0.164546395E-014
  0.777603709E+007  0.000000000E+000 -0.163892213E-014 -0.163892213E-014
  0.777603753E+007  0.000000000E+000 -0.163281883E-014 -0.163281883E-014
  0.777603796E+007  0.000000000E+000 -0.162662363E-014 -0.162662363E-014
  0.777603837E+007  0.000000000E+000 -0.162050787E-014 -0.162050787E-014
  0.777603883E+007  0.000000000E+000 -0.161371140E-014 -0.161371140E-014
  0.777603934E+007  0.000000000E+000 -0.160606597E-014 -0.160606597E-014
  0.777603989E+007  0.000000000E+000 -0.159780397E-014 -0.159780397E-014
  0.777604042E+007  0.000000000E+000 -0.158990838E-014 -0.158990838E-014
  0.777604095E+007  0.000000000E+000 -0.158215288E-014 -0.158215288E-014
  0.777604148E+007  0.000000000E+000 -0.157432040E-014 -0.157432040E-014
  0.777604205E+007  0.000000000E+000 -0.156622020E-014 -0.156622020E-014
  0.777604266E+007  0.000000000E+000 -0.155765446E-014 -0.155765446E-014
  0.777604326E+007  0.000000000E+000 -0.154938359E-014 -0.154938359E-014
  0.777604383E+007  0.000000000E+000 -0.154165362E-014 -0.154165362E-014
  0.777604440E+007  0.000000000E+000 -0.152554485E-014 -0.152554485E-014
  0.777604497E+007  0.000000000E+000 -0.150604993E-014 -0.150604993E-014
  0.777604557E+007  0.000000000E+000 -0.148227945E-014 -0.148227945E-014
  0.777604620E+007  0.000000000E+000 -0.145309484E-014 -0.145309484E-014
  0.777604679E+007  0.000000000E+000 -0.142297240E-014 -0.142297240E-014
  0.777604735E+007  0.000000000E+000 -0.138908718E-014 -0.138908718E-014
  0.777604791E+007  0.000000000E+000 -0.135211741E-014 -0.135211741E-014
  0.777604848E+007  0.000000000E+000 -0.131223782E-014 -0.131223782E-014
  0.777604907E+007  0.000000000E+000 -0.126934914E-014 -0.126934914E-014
  0.777604968E+007  0.000000000E+000 -0.122381507E-014 -0.122381507E-014
  0.777605025E+007  0.000000000E+000 -0.118311745E-014 -0.118311745E-014
  0.777605080E+007  0.000000000E+000 -0.114774007E-014 -0.114774007E-014
  0.777605135E+007  0.000000000E+000 -0.111279838E-014 -0.111279838E-014
  0.777605191E+007  0.000000000E+000 -0.107925126E-014 -0.107925126E-014
  0.777605249E+007  0.000000000E+000 -0.104207362E-014 -0.104207362E-014
  0.777605311E+007  0.000000000E+000 -0.100369959E-014 -0.100369959E-014
  0.777605369E+007  0.000000000E+000 -0.967759517E-015 -0.967759517E-015
  0.777605428E+007  0.000000000E+000 -0.930748183E-015 -0.930748183E-015
  0.777605487E+007  0.000000000E+000 -0.891142037E-015 -0.891142037E-015
  0.777605551E+007  0.000000000E+000 -0.858998507E-015 -0.858998507E-015
  0.777605621E+007  0.000000000E+000 -0.843085179E-015 -0.843085179E-015
  0.777605687E+007  0.000000000E+000 -0.862391699E-015 -0.862391699E-015
  0.777605753E+007  0.000000000E+000 -0.845043881E-015 -0.845043881E-015
  0.777605819E+007  0.000000000E+000 -0.841521166E-015 -0.841521166E-015
  0.777605889E+007  0.000000000E+000 -0.850836860E-015 -0.850836860E-015
  0.777605962E+007  0.000000000E+000 -0.874707288E-015 -0.874707288E-015
  0.777606040E+007  0.000000000E+000 -0.913068491E-015 -0.913068491E-015
  0.777606123E+007  0.000000000E+000 -0.967482957E-015 -0.967482957E-015
  0.777606210E+007  0.000000000E+000 -0.103983356E-014 -0.103983356E-014
  0.777606294E+007  0.000000000E+000 -0.113313730E-014 -0.113313730E-014
  0.777606379E+007  0.000000000E+000 -0.124652677E-014 -0.124652677E-014
  0.777606465E+007  0.000000000E+000 -0.138525881E-014 -0.138525881E-014
  0.777606556E+007  0.000000000E+000 -0.155862990E-014 -0.155862990E-014
  0.777606649E+007  0.000000000E+000 -0.178200499E-014 -0.178200499E-014
  0.777606738E+007  0.000000000E+000 -0.207030636E-014 -0.207030636E-014
  0.777606827E+007  0.000000000E+000 -0.245065833E-014 -0.245065833E-014
  0.777606918E+007  0.000000000E+000 -0.297955718E-014 -0.297955718E-014
  0.777607011E+007  0.000000000E+000 -0.375216710E-014 -0.375216710E-014
  0.777607099E+007  0.000000000E+000 -0.489221159E-014 -0.489221159E-014
  0.777607185E+007  0.000000000E+000 -0.666628048E-014 -0.666628048E-014
  0.777607273E+007  0.000000000E+000 -0.968196248E-014 -0.968196248E-014
  0.777607365E+007  0.000000000E+000 -0.155096506E-013 -0.155096506E-013
  0.777607452E+007  0.000000000E+000 -0.274031941E-013 -0.274031941E-013
  0.777607536E+007  0.000000000E+000 -0.555582445E-013 -0.555582445E-013
  0.777607621E+007  0.000000000E+000 -0.140847610E-012 -0.140847610E-012
  0.777607708E+007  0.000000000E+000 -0.412311669E-012 -0.412311669E-012
  0.777607801E+007  0.000000000E+000 -0.266019970E-011 -0.266019970E-011
  0.777607888E+007  0.867850437E-008 -0.245343945E-010  0.865396997E-008
  0.777607971E+007  0.981382516E-007 -0.184160672E-009  0.979540910E-007
  0.777608056E+007  0.300403448E-006 -0.114482898E-008  0.299258619E-006
  0.777608148E+007  0.620864261E-006 -0.527116688E-008  0.615593095E-006
  0.777608242E+007  0.101216490E-005 -0.180252801E-007  0.994139621E-006
  0.777608332E+007  0.141912974E-005 -0.485595302E-007  0.137057021E-005
  0.777608425E+007  0.182773331E-005 -0.110057450E-006  0.171767586E-005
  0.777608521E+007  0.231106083E-005 -0.536976065E-006  0.177408477E-005
  0.777608627E+007  0.275673147E-005 -0.130174362E-005  0.145498784E-005
  0.777608741E+007  0.310409288E-005 -0.160037704E-005  0.150371585E-005
  0.777608841E+007  0.341471783E-005 -0.195387527E-005  0.146084256E-005
  0.777608943E+007  0.372483786E-005 -0.234410602E-005  0.138073183E-005
  0.777609050E+007  0.403411221E-005 -0.275916298E-005  0.127494923E-005
  0.777609165E+007  0.434836686E-005 -0.318695380E-005  0.116141307E-005
  0.777609286E+007  0.466755764E-005 -0.361832474E-005  0.104923290E-005
  0.777609401E+007  0.496595743E-005 -0.404484441E-005  0.921113023E-006
  0.777609517E+007  0.525625279E-005 -0.445193318E-005  0.804319612E-006
  0.777609637E+007  0.554447791E-005 -0.483588800E-005  0.708589907E-006
  0.777609761E+007  0.583641085E-005 -0.519893525E-005  0.637475605E-006
  0.777609887E+007  0.612376417E-005 -0.554734598E-005  0.576418189E-006
  0.777610014E+007  0.640991830E-005 -0.588203937E-005  0.527878922E-006
  0.777610142E+007  0.669310958E-005 -0.620726711E-005  0.485842473E-006
  0.777610272E+007  0.697515032E-005 -0.652554999E-005  0.449600332E-006
  0.777610403E+007  0.725705932E-005 -0.684109386E-005  0.415965464E-006
  0.777610535E+007  0.753710330E-005 -0.715905875E-005  0.378044541E-006
  0.777610668E+007  0.781645788E-005 -0.748245176E-005  0.334006119E-006
  0.777610801E+007  0.809429782E-005 -0.781725701E-005  0.277040813E-006
  0.777610938E+007  0.837480339E-005 -0.816881890E-005  0.205984492E-006
  0.777611076E+007  0.865578257E-005 -0.855290369E-005  0.102878884E-006
  0.777611212E+007  0.893039443E-005 -0.898273097E-005 -0.523365465E-007
  0.777611349E+007  0.920171157E-005 -0.946978120E-005 -0.268069631E-006
  0.777611488E+007  0.947038400E-005 -0.100619967E-004 -0.591612738E-006
  0.777611627E+007  0.973320279E-005 -0.108270488E-004 -0.109384605E-005
  0.777611763E+007  0.998257472E-005 -0.117691766E-004 -0.178660191E-005
  0.777611901E+007  0.102361809E-004 -0.100423001E-004  0.193880782E-006
  0.777612048E+007  0.104518467E-004 -0.105949087E-004 -0.143061960E-006
  0.777612185E+007  0.106304381E-004 -0.984626374E-005  0.784174404E-006
  0.777612322E+007  0.107915308E-004 -0.974883041E-005  0.104270037E-005
  0.777612463E+007  0.109466861E-004 -0.965289487E-005  0.129379124E-005
  0.777612608E+007  0.110964706E-004 -0.955626665E-005  0.154020391E-005
  0.777612753E+007  0.112392572E-004 -0.946020085E-005  0.177905635E-005
  0.777612897E+007  0.113756529E-004 -0.936554949E-005  0.201010344E-005
  0.777613042E+007  0.115080110E-004 -0.927193432E-005  0.223607668E-005
  0.777613189E+007  0.116388670E-004 -0.917831503E-005  0.246055199E-005
  0.777613336E+007  0.117655775E-004 -0.908652054E-005  0.267905694E-005
  0.777613484E+007  0.118911634E-004 -0.899487454E-005  0.289628882E-005
  0.777613634E+007  0.120146596E-004 -0.890400035E-005  0.311065921E-005
  0.777613783E+007  0.121341803E-004 -0.881520525E-005  0.331897503E-005
  0.777613932E+007  0.122510589E-004 -0.872766991E-005  0.352338896E-005
  0.777614084E+007  0.123672828E-004 -0.863999605E-005  0.372728670E-005
  0.777614234E+007  0.124802392E-004 -0.855392418E-005  0.392631500E-005
  0.777614387E+007  0.125928513E-004 -0.846737836E-005  0.412547296E-005
  0.777614540E+007  0.127031908E-004 -0.838164770E-005  0.432154315E-005
  0.777614693E+007  0.128110176E-004 -0.829689690E-005  0.451412066E-005
  0.777614846E+007  0.129168784E-004 -0.821272041E-005  0.470415803E-005
  0.777615000E+007  0.130217125E-004 -0.812839445E-005  0.489331804E-005
  0.777615154E+007  0.131245557E-004 -0.804461678E-005  0.507993895E-005
  0.777615312E+007  0.132276326E-004 -0.795966902E-005  0.526796359E-005
  0.777615467E+007  0.133278893E-004 -0.787589584E-005  0.545199349E-005
  0.777615623E+007  0.134265166E-004 -0.779242824E-005  0.563408840E-005
  0.777615780E+007  0.135240071E-004 -0.770892604E-005  0.581508107E-005
  0.777615937E+007  0.136199675E-004 -0.762576893E-005  0.599419857E-005
  0.777616095E+007  0.137149896E-004 -0.754255283E-005  0.617243678E-005
  0.777616255E+007  0.138094903E-004 -0.745901146E-005  0.635047887E-005
  0.777616413E+007  0.139016939E-004 -0.737673714E-005  0.652495681E-005
  0.777616572E+007  0.139926721E-004 -0.729494889E-005  0.669772319E-005
  0.777616733E+007  0.140830034E-004 -0.721327187E-005  0.686973157E-005
  0.777616892E+007  0.141714368E-004 -0.713290425E-005  0.703853257E-005
  0.777617054E+007  0.142597731E-004 -0.705236498E-005  0.720740808E-005
  0.777617215E+007  0.143460229E-004 -0.697351670E-005  0.737250622E-005
  0.777617376E+007  0.144309755E-004 -0.689572306E-005  0.753525245E-005
  0.777617538E+007  0.145151445E-004 -0.681862092E-005  0.769652353E-005
  0.777617700E+007  0.145977005E-004 -0.674303927E-005  0.785466123E-005
  0.777617863E+007  0.146794717E-004 -0.666829666E-005  0.801117501E-005
  0.777618028E+007  0.147605909E-004 -0.659439818E-005  0.816619268E-005
  0.777618190E+007  0.148394584E-004 -0.652291964E-005  0.831653880E-005